/*--------------------------------*- C++ -*----------------------------------*\
| =========                 |                                                 |
| \\      /  F ield         | OpenFOAM: The Open Source CFD Toolbox           |
|  \\    /   O peration     | Version:  2306                                  |
|   \\  /    A nd           | Website:  www.openfoam.com                      |
|    \\/     M anipulation  |                                                 |
\*---------------------------------------------------------------------------*/
FoamFile
{
    version     2.0;
    format      ascii;
    arch        "LSB;label=32;scalar=64";
    class       volVectorField;
    location    "6e-05";
    object      U;
}
// * * * * * * * * * * * * * * * * * * * * * * * * * * * * * * * * * * * * * //

dimensions      [0 1 -1 0 0 0 0];

internalField   nonuniform List<vector> 
8983
(
(580 -3.11977e-14 0)
(580 4.80743e-14 0)
(580 8.05675e-14 0)
(580 2.03377e-13 0)
(580 2.84589e-13 0)
(580 3.81316e-13 0)
(580 3.83089e-13 0)
(580 3.00083e-13 0)
(580 2.91823e-13 0)
(580 2.57567e-13 0)
(580 2.25714e-13 0)
(580 2.8183e-13 0)
(580 2.10713e-13 0)
(580 1.87654e-13 0)
(580 1.34527e-13 0)
(580 3.49893e-14 0)
(580 1.19239e-13 0)
(580 1.71497e-13 0)
(580 2.21574e-13 0)
(580 2.7891e-13 0)
(580 2.66259e-13 0)
(580 1.60338e-13 0)
(580 1.84859e-13 0)
(580 8.26968e-14 0)
(580 1.97566e-13 0)
(580 1.47092e-13 0)
(580 3.27231e-13 0)
(580 4.15457e-13 0)
(580 4.37597e-13 0)
(580 5.25896e-13 0)
(580 5.34117e-13 0)
(580 6.30069e-13 0)
(580 7.66233e-13 0)
(580 6.16079e-13 0)
(580 4.84098e-13 0)
(580 4.85272e-13 0)
(580 4.55113e-13 0)
(580 4.71509e-13 0)
(580 6.21064e-13 0)
(580 1.03862e-12 0)
(580 1.26116e-12 0)
(580 1.39972e-12 0)
(580 1.83015e-12 0)
(580 7.54098e-15 0)
(580 5.89153e-14 0)
(580 8.61068e-14 0)
(580 1.2729e-13 0)
(580 3.04091e-13 0)
(580 3.75462e-13 0)
(580 4.75103e-13 0)
(580 4.74538e-13 0)
(580 5.18576e-13 0)
(580 4.62202e-13 0)
(580 4.04231e-13 0)
(580 2.22081e-13 0)
(580 1.76586e-13 0)
(580 3.02546e-13 0)
(580 3.29162e-13 0)
(580 4.64458e-13 0)
(580 5.02228e-13 0)
(580 5.98956e-13 0)
(580 7.36702e-13 0)
(580 8.06096e-13 0)
(580 8.69705e-13 0)
(580 1.00754e-12 0)
(580 9.4919e-13 0)
(580 8.00732e-13 0)
(580 8.01261e-13 0)
(580 9.10115e-13 0)
(580 7.62945e-13 0)
(580 6.68789e-13 0)
(580 6.12908e-13 0)
(580 6.61791e-13 0)
(580 8.03587e-13 0)
(580 1.05526e-12 0)
(580 1.06532e-12 0)
(580 1.0097e-12 0)
(580 1.24347e-12 0)
(580 1.22409e-12 0)
(580 1.35627e-12 0)
(580 1.49506e-12 0)
(580 1.51779e-12 0)
(580 1.54767e-12 0)
(580 1.5413e-12 0)
(580 1.66599e-12 0)
(580 1.81505e-12 0)
(580 2.12138e-12 0)
(580 2.63179e-12 0)
(580 3.07553e-12 0)
(580 3.24477e-12 0)
(580 3.38575e-12 0)
(580 3.56932e-12 0)
(580 3.66575e-12 0)
(580 3.79213e-12 0)
(580 3.92225e-12 0)
(580 4.0201e-12 0)
(580 4.36335e-12 0)
(580 4.44901e-12 0)
(580 4.63314e-12 0)
(580 4.73047e-12 0)
(580 4.72848e-12 0)
(580 4.67303e-12 0)
(580 4.82227e-12 0)
(580 4.86533e-12 0)
(580 5.06314e-12 0)
(580 5.0523e-12 0)
(580 5.30498e-12 0)
(580 5.31402e-12 0)
(580 5.30526e-12 0)
(580 5.28202e-12 0)
(580 5.30575e-12 0)
(580 5.22572e-12 0)
(580 5.38732e-12 0)
(580 5.26223e-12 0)
(580 4.95742e-12 0)
(580 4.72948e-12 0)
(580 4.52931e-12 0)
(580 4.41002e-12 0)
(580 3.98355e-12 0)
(580 3.45869e-12 0)
(580 3.36267e-12 0)
(580 3.06057e-12 0)
(580 3.28575e-12 0)
(580 1.71184e-14 0)
(580 1.20223e-13 0)
(580 2.66293e-13 0)
(580 3.22595e-13 0)
(580 2.64152e-13 0)
(580 2.47424e-13 0)
(580 3.05832e-13 0)
(580 3.96506e-13 0)
(580 2.76893e-13 0)
(580 1.65804e-13 0)
(580 9.81526e-14 0)
(580 -1.33686e-14 0)
(580 1.77282e-14 0)
(580 -7.81762e-15 0)
(580 6.46316e-15 0)
(580 6.1941e-14 0)
(580 1.88173e-13 0)
(580 2.43174e-13 0)
(580 1.34511e-13 0)
(580 2.56144e-13 0)
(580 4.51898e-13 0)
(580 5.66979e-13 0)
(580 7.8e-13 0)
(580 1.02354e-12 0)
(580 1.05952e-12 0)
(580 1.20927e-12 0)
(580 1.15421e-12 0)
(580 1.1551e-12 0)
(580 1.20785e-12 0)
(580 1.20555e-12 0)
(580 1.2486e-12 0)
(580 1.27683e-12 0)
(580 1.30822e-12 0)
(580 1.33509e-12 0)
(580 1.58404e-12 0)
(580 1.62101e-12 0)
(580 1.59963e-12 0)
(580 1.83944e-12 0)
(580 2.04633e-12 0)
(580 2.18365e-12 0)
(580 2.27039e-12 0)
(580 2.4783e-12 0)
(580 2.53967e-12 0)
(580 2.87158e-12 0)
(580 3.21262e-12 0)
(580 3.59882e-12 0)
(580 3.70052e-12 0)
(580 3.98363e-12 0)
(580 4.10117e-12 0)
(580 4.34659e-12 0)
(580 4.44134e-12 0)
(580 4.3899e-12 0)
(580 4.495e-12 0)
(580 4.629e-12 0)
(580 4.61456e-12 0)
(580 4.49906e-12 0)
(580 4.62773e-12 0)
(580 4.50306e-12 0)
(580 4.4504e-12 0)
(580 4.30556e-12 0)
(580 4.27528e-12 0)
(580 4.54334e-12 0)
(580 4.71272e-12 0)
(580 4.57669e-12 0)
(580 4.81598e-12 0)
(580 4.45729e-12 0)
(580 4.50724e-12 0)
(580 4.3114e-12 0)
(580 3.7435e-12 0)
(580 3.1587e-12 0)
(580 2.80661e-12 0)
(580 3.19675e-12 0)
(580 3.6485e-12 0)
(580 4.10845e-12 0)
(580 4.34114e-12 0)
(580 4.48819e-12 0)
(580 4.45825e-12 0)
(580 4.42487e-12 0)
(580 4.18026e-12 0)
(580 3.63555e-12 0)
(580 -6.90091e-14 0)
(580 1.10567e-13 0)
(580 2.92391e-13 0)
(580 5.08715e-13 0)
(580 5.24087e-13 0)
(580 4.06544e-13 0)
(580 2.90196e-13 0)
(580 1.98834e-13 0)
(580 1.64976e-13 0)
(580 2.61705e-13 0)
(580 3.55279e-13 0)
(580 4.47374e-13 0)
(580 5.66274e-13 0)
(580 5.50191e-13 0)
(580 6.13053e-13 0)
(580 6.77886e-13 0)
(580 6.05747e-13 0)
(580 4.93442e-13 0)
(580 3.8229e-13 0)
(580 3.66292e-13 0)
(580 4.30148e-13 0)
(580 4.69629e-13 0)
(580 6.3297e-13 0)
(580 7.88966e-13 0)
(580 1.03953e-12 0)
(580 1.07324e-12 0)
(580 1.09536e-12 0)
(580 1.29618e-12 0)
(580 1.41736e-12 0)
(580 1.47972e-12 0)
(580 1.38761e-12 0)
(580 1.44235e-12 0)
(580 1.66176e-12 0)
(580 1.7884e-12 0)
(580 1.72706e-12 0)
(580 1.78653e-12 0)
(580 1.68802e-12 0)
(580 1.83512e-12 0)
(580 2.26945e-12 0)
(580 2.48836e-12 0)
(580 2.61613e-12 0)
(580 2.77236e-12 0)
(580 3.04622e-12 0)
(580 3.28707e-12 0)
(580 3.22955e-12 0)
(580 3.11215e-12 0)
(580 3.23722e-12 0)
(580 3.7244e-12 0)
(580 3.98906e-12 0)
(580 4.32665e-12 0)
(580 4.97185e-12 0)
(580 5.20191e-12 0)
(580 4.8295e-12 0)
(580 4.13662e-12 0)
(580 3.56041e-12 0)
(580 2.98308e-12 0)
(580 2.53536e-12 0)
(580 2.85691e-12 0)
(580 3.15384e-12 0)
(580 3.38001e-12 0)
(580 3.68112e-12 0)
(580 3.75565e-12 0)
(580 3.43608e-12 0)
(580 2.78956e-12 0)
(580 3.12003e-12 0)
(580 3.03529e-12 0)
(580 2.97451e-12 0)
(580 2.80719e-12 0)
(580 1.81758e-12 0)
(580 1.43858e-12 0)
(580 1.32949e-12 0)
(580 1.64208e-12 0)
(580 2.10102e-12 0)
(580 2.33606e-12 0)
(580 2.84713e-12 0)
(580 3.20476e-12 0)
(580 3.55365e-12 0)
(580 4.30419e-12 0)
(580 4.80696e-12 0)
(580 4.40096e-12 0)
(580 1.09976e-13 0)
(580 7.1696e-14 0)
(580 4.07391e-14 0)
(580 6.40764e-15 0)
(580 3.99606e-14 0)
(580 1.71079e-13 0)
(580 1.99267e-13 0)
(580 1.71172e-13 0)
(580 3.45735e-13 0)
(580 4.47252e-13 0)
(580 5.13567e-13 0)
(580 5.38925e-13 0)
(580 5.42225e-13 0)
(580 7.05344e-13 0)
(580 8.1013e-13 0)
(580 9.73032e-13 0)
(580 9.52776e-13 0)
(580 1.04874e-12 0)
(580 9.55553e-13 0)
(580 1.07132e-12 0)
(580 9.57293e-13 0)
(580 9.57686e-13 0)
(580 1.01031e-12 0)
(580 1.03428e-12 0)
(580 1.0671e-12 0)
(580 1.0592e-12 0)
(580 9.77728e-13 0)
(580 8.53488e-13 0)
(580 7.86917e-13 0)
(580 8.29896e-13 0)
(580 8.87976e-13 0)
(580 1.20328e-12 0)
(580 1.3683e-12 0)
(580 1.58155e-12 0)
(580 1.79321e-12 0)
(580 2.06306e-12 0)
(580 2.13034e-12 0)
(580 2.15059e-12 0)
(580 2.15913e-12 0)
(580 2.43184e-12 0)
(580 2.60959e-12 0)
(580 2.67486e-12 0)
(580 2.98178e-12 0)
(580 2.96458e-12 0)
(580 2.36531e-12 0)
(580 2.02615e-12 0)
(580 1.96946e-12 0)
(580 2.24721e-12 0)
(580 2.48287e-12 0)
(580 2.82274e-12 0)
(580 3.30385e-12 0)
(580 3.86146e-12 0)
(580 3.16708e-12 0)
(580 2.68886e-12 0)
(580 2.36907e-12 0)
(580 1.96078e-12 0)
(580 1.60077e-12 0)
(580 2.14657e-12 0)
(580 2.72118e-12 0)
(580 3.4771e-12 0)
(580 3.96825e-12 0)
(580 4.55776e-12 0)
(580 4.04116e-12 0)
(580 3.02961e-12 0)
(580 2.26074e-12 0)
(580 2.21798e-12 0)
(580 1.6922e-12 0)
(580 1.3616e-12 0)
(580 1.10682e-12 0)
(580 8.49834e-13 0)
(580 5.14528e-13 0)
(580 7.25095e-13 0)
(580 9.43542e-13 0)
(580 1.08352e-12 0)
(580 1.50232e-12 0)
(580 1.94871e-12 0)
(580 2.56202e-12 0)
(580 2.77101e-12 0)
(580 3.27432e-12 0)
(580 3.44282e-12 0)
(580 -2.44947e-14 0)
(580 6.46792e-15 0)
(580 -2.06024e-13 0)
(580 -2.6367e-13 0)
(580 -2.80966e-13 0)
(580 -2.06056e-13 0)
(580 6.05943e-14 0)
(580 1.78501e-13 0)
(580 5.01652e-13 0)
(580 4.69503e-13 0)
(580 3.84213e-13 0)
(580 3.86847e-13 0)
(580 4.05826e-13 0)
(580 4.43124e-13 0)
(580 3.10015e-13 0)
(580 2.39787e-13 0)
(580 3.08209e-13 0)
(580 6.89936e-13 0)
(580 7.92135e-13 0)
(580 9.60256e-13 0)
(580 9.79268e-13 0)
(580 9.26005e-13 0)
(580 8.8792e-13 0)
(580 8.57975e-13 0)
(580 8.37915e-13 0)
(580 7.2e-13 0)
(580 6.71799e-13 0)
(580 4.89482e-13 0)
(580 4.47462e-13 0)
(580 3.68575e-13 0)
(580 7.99062e-13 0)
(580 1.25009e-12 0)
(580 1.37949e-12 0)
(580 1.42874e-12 0)
(580 1.5232e-12 0)
(580 1.62975e-12 0)
(580 1.74714e-12 0)
(580 1.90747e-12 0)
(580 2.19143e-12 0)
(580 2.36489e-12 0)
(580 2.58385e-12 0)
(580 2.62236e-12 0)
(580 2.59215e-12 0)
(580 2.15598e-12 0)
(580 1.55766e-12 0)
(580 1.37262e-12 0)
(580 1.1449e-12 0)
(580 1.43431e-12 0)
(580 1.64578e-12 0)
(580 1.78614e-12 0)
(580 1.81501e-12 0)
(580 1.88079e-12 0)
(580 1.5067e-12 0)
(580 1.14997e-12 0)
(580 9.54421e-13 0)
(580 7.23938e-13 0)
(580 8.20941e-13 0)
(580 1.26288e-12 0)
(580 1.62156e-12 0)
(580 2.17059e-12 0)
(580 2.06717e-12 0)
(580 2.34396e-12 0)
(580 2.93558e-12 0)
(580 2.43937e-12 0)
(580 1.52754e-12 0)
(580 8.91735e-13 0)
(580 7.94364e-13 0)
(580 7.21928e-13 0)
(580 5.65895e-13 0)
(580 3.92873e-13 0)
(580 -7.04321e-14 0)
(580 -2.68076e-13 0)
(580 -3.35596e-13 0)
(580 1.44003e-13 0)
(580 5.21147e-13 0)
(580 1.14166e-12 0)
(580 1.53026e-12 0)
(580 1.31652e-12 0)
(580 1.46412e-12 0)
(580 1.44317e-12 0)
(580 -7.6629e-14 0)
(580 -2.34453e-13 0)
(580 -3.23722e-13 0)
(580 -2.5428e-13 0)
(580 -1.73632e-13 0)
(580 -1.00954e-13 0)
(580 -5.66986e-14 0)
(580 -3.42432e-14 0)
(580 1.19319e-14 0)
(580 1.54309e-13 0)
(580 2.43331e-13 0)
(580 4.18367e-13 0)
(580 6.24695e-13 0)
(580 5.67106e-13 0)
(580 3.99946e-13 0)
(580 3.88277e-13 0)
(580 6.52699e-13 0)
(580 8.80489e-13 0)
(580 1.09087e-12 0)
(580 1.0329e-12 0)
(580 1.07673e-12 0)
(580 1.09936e-12 0)
(580 1.01718e-12 0)
(580 7.8342e-13 0)
(580 6.76692e-13 0)
(580 5.89147e-13 0)
(580 6.25278e-13 0)
(580 6.7359e-13 0)
(580 9.95258e-13 0)
(580 1.25614e-12 0)
(580 1.60893e-12 0)
(580 1.51733e-12 0)
(580 1.37982e-12 0)
(580 1.15082e-12 0)
(580 1.08068e-12 0)
(580 1.10542e-12 0)
(580 1.38723e-12 0)
(580 1.82182e-12 0)
(580 2.18587e-12 0)
(580 2.25202e-12 0)
(580 2.77318e-12 0)
(580 2.58505e-12 0)
(580 2.01829e-12 0)
(580 1.67343e-12 0)
(580 1.6e-12 0)
(580 1.71199e-12 0)
(580 1.7993e-12 0)
(580 1.66126e-12 0)
(580 1.49009e-12 0)
(580 1.2118e-12 0)
(580 1.02364e-12 0)
(580 1.07584e-12 0)
(580 1.05907e-12 0)
(580 1.17361e-12 0)
(580 1.20855e-12 0)
(580 1.18255e-12 0)
(580 1.03697e-12 0)
(580 1.03705e-12 0)
(580 1.01425e-12 0)
(580 1.22714e-12 0)
(580 1.37939e-12 0)
(580 1.16965e-12 0)
(580 2.17284e-12 0)
(580 1.91565e-12 0)
(580 1.22813e-12 0)
(580 8.03137e-13 0)
(580 5.84537e-13 0)
(580 5.74792e-15 0)
(580 -5.11947e-13 0)
(580 -7.65545e-13 0)
(580 -8.4593e-13 0)
(580 -1.12537e-12 0)
(580 -1.03777e-12 0)
(580 -4.32244e-13 0)
(580 -5.57002e-14 0)
(580 3.34835e-13 0)
(580 2.4989e-13 0)
(580 -1.00813e-13 0)
(580 -3.68044e-13 0)
(580 2.7389e-13 0)
(580 1.80862e-14 0)
(580 9.07354e-15 0)
(580 8.30378e-14 0)
(580 1.05975e-13 0)
(580 1.45716e-13 0)
(580 1.10392e-13 0)
(580 5.36601e-14 0)
(580 -1.19054e-13 0)
(580 -2.82892e-13 0)
(580 -2.06729e-13 0)
(580 -1.14965e-13 0)
(580 -1.40442e-13 0)
(580 -1.07236e-13 0)
(580 6.52325e-14 0)
(580 1.43901e-13 0)
(580 3.44764e-13 0)
(580 4.54398e-13 0)
(580 5.80236e-13 0)
(580 5.67277e-13 0)
(580 5.75074e-13 0)
(580 6.41726e-13 0)
(580 9.02793e-13 0)
(580 8.40676e-13 0)
(580 6.18475e-13 0)
(580 6.98184e-13 0)
(580 7.64166e-13 0)
(580 7.84494e-13 0)
(580 1.21201e-12 0)
(580 1.45376e-12 0)
(580 1.57015e-12 0)
(580 1.44948e-12 0)
(580 8.77637e-13 0)
(580 6.19317e-13 0)
(580 4.82476e-13 0)
(580 7.16891e-13 0)
(580 1.26641e-12 0)
(580 2.01988e-12 0)
(580 2.03178e-12 0)
(580 1.93186e-12 0)
(580 1.85076e-12 0)
(580 1.87681e-12 0)
(580 1.51998e-12 0)
(580 1.05434e-12 0)
(580 9.31108e-13 0)
(580 1.15083e-12 0)
(580 1.58054e-12 0)
(580 1.63752e-12 0)
(580 1.30343e-12 0)
(580 5.67093e-13 0)
(580 -1.1883e-13 0)
(580 -4.07276e-13 0)
(580 -4.12637e-13 0)
(580 2.336e-13 0)
(580 5.36982e-13 0)
(580 9.0081e-13 0)
(580 1.13613e-12 0)
(580 1.59047e-12 0)
(580 1.32414e-12 0)
(580 8.82231e-13 0)
(580 7.79814e-13 0)
(580 8.60743e-13 0)
(580 6.0704e-13 0)
(580 7.8746e-13 0)
(580 1.20174e-12 0)
(580 6.22859e-13 0)
(580 3.25764e-13 0)
(580 -1.23578e-13 0)
(580 -6.12798e-13 0)
(580 -8.58927e-13 0)
(580 -1.19808e-12 0)
(580 -1.2511e-12 0)
(580 -1.43975e-12 0)
(580 -1.10097e-12 0)
(580 -8.8896e-13 0)
(580 -7.93787e-13 0)
(580 -8.45363e-13 0)
(580 -1.26666e-12 0)
(580 -1.20469e-12 0)
(580 -1.46235e-12 0)
(580 -1.55559e-12 0)
(580 -9.49697e-14 0)
(580 -5.67698e-14 0)
(580 -8.77221e-14 0)
(580 -2.63013e-13 0)
(580 -2.80244e-13 0)
(580 -4.31041e-13 0)
(580 -3.60015e-13 0)
(580 -3.35104e-13 0)
(580 -5.39062e-13 0)
(580 -6.13416e-13 0)
(580 -5.26408e-13 0)
(580 -4.82948e-13 0)
(580 -3.90156e-13 0)
(580 -2.33177e-13 0)
(580 7.67503e-14 0)
(580 1.35026e-13 0)
(580 2.79108e-14 0)
(580 3.16341e-14 0)
(580 4.35062e-15 0)
(580 5.38558e-15 0)
(580 -1.1034e-13 0)
(580 -8.92689e-14 0)
(580 9.31349e-14 0)
(580 1.43339e-13 0)
(580 4.95813e-13 0)
(580 1.0418e-12 0)
(580 1.54783e-12 0)
(580 1.7093e-12 0)
(580 1.62443e-12 0)
(580 1.31694e-12 0)
(580 6.06171e-13 0)
(580 -4.78475e-14 0)
(580 -1.30555e-13 0)
(580 -8.64903e-14 0)
(580 5.38762e-13 0)
(580 8.96536e-13 0)
(580 9.17729e-13 0)
(580 1.09591e-12 0)
(580 1.19019e-12 0)
(580 9.64976e-13 0)
(580 5.00158e-13 0)
(580 2.62706e-13 0)
(580 4.08503e-13 0)
(580 6.54346e-13 0)
(580 8.58648e-13 0)
(580 7.7018e-13 0)
(580 5.884e-13 0)
(580 7.22225e-13 0)
(580 5.1297e-13 0)
(580 4.05729e-13 0)
(580 -1.21039e-13 0)
(580 -3.37874e-13 0)
(580 -1.42976e-13 0)
(580 3.14802e-13 0)
(580 7.16346e-13 0)
(580 8.45408e-13 0)
(580 9.50358e-13 0)
(580 9.37484e-13 0)
(580 9.2137e-13 0)
(580 7.81469e-13 0)
(580 5.29117e-13 0)
(580 1.88197e-13 0)
(580 -6.40341e-13 0)
(580 -4.37839e-13 0)
(580 -2.00116e-13 0)
(580 -5.29524e-13 0)
(580 -4.52219e-13 0)
(580 -4.65612e-13 0)
(580 -5.36021e-13 0)
(580 -9.36381e-13 0)
(580 -1.24813e-12 0)
(580 -1.20123e-12 0)
(580 -1.21275e-12 0)
(580 -1.20424e-12 0)
(580 -1.42027e-12 0)
(580 -1.94063e-12 0)
(580 -2.20742e-12 0)
(580 -1.70189e-12 0)
(580 -2.39574e-12 0)
(580 -2.35036e-12 0)
(580 -3.42146e-15 0)
(580 -8.365e-14 0)
(580 -2.05702e-13 0)
(580 -4.15804e-13 0)
(580 -4.48227e-13 0)
(580 -3.7382e-13 0)
(580 -4.19698e-13 0)
(580 -3.64333e-13 0)
(580 -4.07525e-13 0)
(580 -3.70994e-13 0)
(580 -3.58579e-13 0)
(580 -3.90785e-13 0)
(580 -2.15739e-13 0)
(580 -3.16888e-13 0)
(580 -3.21676e-13 0)
(580 -4.23406e-13 0)
(580 -5.73929e-13 0)
(580 -5.97568e-13 0)
(580 -3.65622e-13 0)
(580 -3.28939e-13 0)
(580 -3.14025e-13 0)
(580 -2.33125e-13 0)
(580 6.29362e-14 0)
(580 7.13641e-13 0)
(580 9.55865e-13 0)
(580 9.50955e-13 0)
(580 9.59916e-13 0)
(580 8.9175e-13 0)
(580 8.08408e-13 0)
(580 5.33145e-13 0)
(580 2.59614e-13 0)
(580 8.41606e-14 0)
(580 6.7232e-14 0)
(580 1.50838e-13 0)
(580 2.42227e-15 0)
(580 -3.14816e-14 0)
(580 -2.2642e-13 0)
(580 -3.13497e-13 0)
(580 -1.12309e-13 0)
(580 -5.05743e-13 0)
(580 -6.46591e-13 0)
(580 -4.47494e-13 0)
(580 3.26051e-14 0)
(580 3.72579e-13 0)
(580 4.84772e-13 0)
(580 5.06974e-13 0)
(580 2.89735e-13 0)
(580 3.84487e-13 0)
(580 2.0165e-13 0)
(580 2.70452e-13 0)
(580 4.1794e-13 0)
(580 1.1988e-13 0)
(580 1.27965e-14 0)
(580 1.54643e-13 0)
(580 4.45443e-13 0)
(580 6.08977e-13 0)
(580 6.33273e-13 0)
(580 6.75875e-13 0)
(580 6.08516e-13 0)
(580 3.96746e-13 0)
(580 1.59091e-13 0)
(580 -5.66544e-13 0)
(580 -9.66136e-13 0)
(580 -8.20549e-13 0)
(580 -5.51129e-13 0)
(580 -2.31967e-13 0)
(580 -2.25696e-13 0)
(580 -1.51082e-13 0)
(580 -1.52561e-13 0)
(580 -2.11077e-13 0)
(580 -1.58569e-13 0)
(580 -1.39597e-14 0)
(580 -1.17853e-12 0)
(580 -1.3466e-12 0)
(580 -1.70733e-12 0)
(580 -2.30825e-12 0)
(580 -2.16611e-12 0)
(580 -2.2365e-12 0)
(580 -2.89235e-12 0)
(580 -2.0386e-12 0)
(580 6.39685e-14 0)
(580 -3.82173e-15 0)
(580 -9.26667e-14 0)
(580 -1.02694e-13 0)
(580 -1.16615e-13 0)
(580 -1.58573e-13 0)
(580 -2.92938e-13 0)
(580 -3.35973e-13 0)
(580 -2.92769e-13 0)
(580 -2.85317e-13 0)
(580 -4.40558e-13 0)
(580 -5.23972e-13 0)
(580 -5.15684e-13 0)
(580 -4.8085e-13 0)
(580 -4.46675e-13 0)
(580 -4.95421e-13 0)
(580 -5.16197e-13 0)
(580 -5.01058e-13 0)
(580 -4.30587e-13 0)
(580 -2.56412e-13 0)
(580 -1.13713e-13 0)
(580 4.77916e-14 0)
(580 3.07815e-13 0)
(580 8.44586e-13 0)
(580 9.62583e-13 0)
(580 1.14261e-12 0)
(580 6.62697e-13 0)
(580 3.12342e-13 0)
(580 -2.47897e-13 0)
(580 -2.39861e-13 0)
(580 -1.41281e-13 0)
(580 -5.19761e-15 0)
(580 -6.93968e-14 0)
(580 3.05438e-14 0)
(580 -1.61553e-13 0)
(580 -4.11638e-13 0)
(580 -4.72141e-13 0)
(580 -6.59457e-13 0)
(580 -8.4753e-13 0)
(580 -1.5626e-12 0)
(580 -1.54646e-12 0)
(580 -1.0959e-12 0)
(580 -8.38463e-13 0)
(580 -7.23751e-13 0)
(580 -3.16771e-13 0)
(580 -1.0862e-13 0)
(580 -3.41874e-13 0)
(580 -3.96598e-13 0)
(580 -6.68878e-13 0)
(580 -8.20062e-13 0)
(580 -8.27055e-13 0)
(580 -9.46764e-13 0)
(580 -7.37801e-13 0)
(580 -4.79914e-13 0)
(580 1.46752e-13 0)
(580 7.45249e-13 0)
(580 5.30017e-13 0)
(580 1.8674e-13 0)
(580 -2.75644e-13 0)
(580 -1.27022e-12 0)
(580 -2.0422e-12 0)
(580 -2.6021e-12 0)
(580 -2.40349e-12 0)
(580 -2.16177e-12 0)
(580 -1.79516e-12 0)
(580 -7.52155e-13 0)
(580 -6.21765e-13 0)
(580 -5.31911e-13 0)
(580 -4.6091e-13 0)
(580 -3.5886e-13 0)
(580 7.5029e-14 0)
(580 2.73666e-13 0)
(580 -6.50339e-13 0)
(580 -1.00012e-12 0)
(580 -1.3578e-12 0)
(580 -1.40248e-12 0)
(580 -1.80475e-12 0)
(580 -2.41781e-12 0)
(580 -2.80712e-12 0)
(580 -2.46378e-12 0)
(580 2.03571e-14 0)
(580 7.42437e-14 0)
(580 -6.54711e-15 0)
(580 4.62264e-14 0)
(580 3.19266e-14 0)
(580 -3.82159e-14 0)
(580 -1.63881e-14 0)
(580 -9.07263e-14 0)
(580 -1.46758e-13 0)
(580 -3.29305e-13 0)
(580 -5.58612e-13 0)
(580 -5.95299e-13 0)
(580 -4.66063e-13 0)
(580 -2.43279e-13 0)
(580 -1.5969e-13 0)
(580 -6.39505e-14 0)
(580 8.33295e-14 0)
(580 1.01359e-14 0)
(580 -9.59066e-14 0)
(580 -1.22723e-13 0)
(580 -9.0856e-14 0)
(580 -5.13421e-14 0)
(580 -1.30364e-13 0)
(580 4.07647e-14 0)
(580 6.13966e-14 0)
(580 7.8786e-14 0)
(580 -2.9327e-14 0)
(580 -1.69473e-13 0)
(580 -3.08897e-13 0)
(580 -3.31561e-13 0)
(580 -3.51183e-13 0)
(580 -4.30796e-13 0)
(580 -4.30029e-13 0)
(580 -3.33358e-13 0)
(580 -4.90047e-13 0)
(580 -4.84337e-13 0)
(580 -5.11316e-13 0)
(580 -5.97525e-13 0)
(580 -1.31944e-12 0)
(580 -1.86863e-12 0)
(580 -2.20573e-12 0)
(580 -1.98089e-12 0)
(580 -1.91622e-12 0)
(580 -1.74188e-12 0)
(580 -1.41739e-12 0)
(580 -1.31796e-12 0)
(580 -1.80843e-12 0)
(580 -1.92628e-12 0)
(580 -1.81384e-12 0)
(580 -1.75915e-12 0)
(580 -1.59935e-12 0)
(580 -1.42872e-12 0)
(580 -1.08477e-12 0)
(580 -5.31694e-13 0)
(580 -1.22183e-13 0)
(580 3.38772e-13 0)
(580 1.6073e-13 0)
(580 -7.94373e-14 0)
(580 -8.51199e-13 0)
(580 -1.59052e-12 0)
(580 -1.79887e-12 0)
(580 -2.30048e-12 0)
(580 -2.51751e-12 0)
(580 -2.46733e-12 0)
(580 -2.38306e-12 0)
(580 -2.0709e-12 0)
(580 -1.55626e-12 0)
(580 -1.12683e-12 0)
(580 -8.25989e-13 0)
(580 -7.56657e-13 0)
(580 -4.87069e-13 0)
(580 -6.51785e-13 0)
(580 -1.12914e-12 0)
(580 -1.09441e-12 0)
(580 -1.25011e-12 0)
(580 -1.54928e-12 0)
(580 -1.90974e-12 0)
(580 -2.16926e-12 0)
(580 -2.12058e-12 0)
(580 -1.96359e-12 0)
(580 9.72709e-15 0)
(580 8.96016e-14 0)
(580 3.21898e-13 0)
(580 3.67975e-13 0)
(580 3.6128e-13 0)
(580 2.90332e-13 0)
(580 2.62676e-13 0)
(580 1.41199e-13 0)
(580 1.18048e-14 0)
(580 -1.60135e-13 0)
(580 -2.87944e-13 0)
(580 -3.8053e-13 0)
(580 -3.12059e-13 0)
(580 -2.60829e-13 0)
(580 -4.16542e-13 0)
(580 -2.48694e-13 0)
(580 -2.46324e-13 0)
(580 -5.10991e-14 0)
(580 -4.0887e-15 0)
(580 5.03864e-14 0)
(580 1.33481e-13 0)
(580 2.2289e-13 0)
(580 -1.91035e-13 0)
(580 -5.73826e-13 0)
(580 -9.86527e-13 0)
(580 -1.52395e-12 0)
(580 -1.47096e-12 0)
(580 -1.19208e-12 0)
(580 -9.32788e-13 0)
(580 -9.89655e-13 0)
(580 -9.81981e-13 0)
(580 -6.36865e-13 0)
(580 -1.19797e-13 0)
(580 -2.25076e-13 0)
(580 -5.24932e-13 0)
(580 -7.5927e-13 0)
(580 -1.02454e-12 0)
(580 -1.36949e-12 0)
(580 -1.7047e-12 0)
(580 -1.73188e-12 0)
(580 -1.91588e-12 0)
(580 -2.13498e-12 0)
(580 -2.3688e-12 0)
(580 -2.44238e-12 0)
(580 -2.66112e-12 0)
(580 -2.45677e-12 0)
(580 -2.57781e-12 0)
(580 -2.83879e-12 0)
(580 -2.8661e-12 0)
(580 -2.62989e-12 0)
(580 -2.56701e-12 0)
(580 -2.43482e-12 0)
(580 -2.26589e-12 0)
(580 -2.08276e-12 0)
(580 -2.04033e-12 0)
(580 -1.90697e-12 0)
(580 -1.79446e-12 0)
(580 -1.92067e-12 0)
(580 -2.13207e-12 0)
(580 -2.16264e-12 0)
(580 -2.06935e-12 0)
(580 -2.11482e-12 0)
(580 -2.22949e-12 0)
(580 -2.48114e-12 0)
(580 -2.82339e-12 0)
(580 -3.04267e-12 0)
(580 -2.45106e-12 0)
(580 -1.87629e-12 0)
(580 -1.41227e-12 0)
(580 -1.33162e-12 0)
(580 -1.25087e-12 0)
(580 -1.26395e-12 0)
(580 -1.83115e-12 0)
(580 -1.95764e-12 0)
(580 -1.91824e-12 0)
(580 -1.94087e-12 0)
(580 -1.87189e-12 0)
(580 -1.78645e-12 0)
(580 -1.60619e-12 0)
(580 -1.31775e-12 0)
(580 -3.99117e-14 0)
(580 -5.01764e-14 0)
(580 1.12085e-13 0)
(580 1.32374e-13 0)
(580 1.45091e-13 0)
(580 1.99641e-13 0)
(580 1.4187e-13 0)
(580 4.57525e-14 0)
(580 2.15225e-14 0)
(580 -1.10381e-14 0)
(580 4.9104e-14 0)
(580 1.73415e-13 0)
(580 -1.35243e-13 0)
(580 -3.6282e-13 0)
(580 -5.5743e-13 0)
(580 -5.59014e-13 0)
(580 -4.23203e-13 0)
(580 -1.19293e-13 0)
(580 5.01737e-14 0)
(580 -5.03443e-14 0)
(580 -1.69498e-13 0)
(580 -3.05431e-13 0)
(580 -2.36514e-13 0)
(580 -8.50927e-13 0)
(580 -1.60155e-12 0)
(580 -2.12434e-12 0)
(580 -1.99989e-12 0)
(580 -1.67685e-12 0)
(580 -1.51339e-12 0)
(580 -1.57894e-12 0)
(580 -1.42571e-12 0)
(580 -9.30325e-13 0)
(580 -7.4141e-13 0)
(580 -1.03593e-12 0)
(580 -1.29812e-12 0)
(580 -2.0278e-12 0)
(580 -2.4006e-12 0)
(580 -2.24829e-12 0)
(580 -2.16059e-12 0)
(580 -2.02817e-12 0)
(580 -1.82849e-12 0)
(580 -1.82771e-12 0)
(580 -2.20838e-12 0)
(580 -2.65176e-12 0)
(580 -2.9498e-12 0)
(580 -2.95764e-12 0)
(580 -3.00725e-12 0)
(580 -3.16432e-12 0)
(580 -3.21254e-12 0)
(580 -3.40048e-12 0)
(580 -3.37492e-12 0)
(580 -3.33886e-12 0)
(580 -3.36682e-12 0)
(580 -3.3554e-12 0)
(580 -3.53877e-12 0)
(580 -3.35065e-12 0)
(580 -3.13909e-12 0)
(580 -3.28044e-12 0)
(580 -2.85952e-12 0)
(580 -2.41575e-12 0)
(580 -2.50164e-12 0)
(580 -2.37658e-12 0)
(580 -2.50857e-12 0)
(580 -2.90964e-12 0)
(580 -3.12455e-12 0)
(580 -3.07081e-12 0)
(580 -2.65446e-12 0)
(580 -2.31864e-12 0)
(580 -1.98989e-12 0)
(580 -1.55452e-12 0)
(580 -1.31254e-12 0)
(580 -1.34652e-12 0)
(580 -1.48503e-12 0)
(580 -1.84898e-12 0)
(580 -1.88572e-12 0)
(580 -1.80136e-12 0)
(580 -1.66836e-12 0)
(580 -1.60911e-12 0)
(580 -1.38456e-12 0)
(580 -1.17824e-12 0)
(580 -1.63538e-14 0)
(580 -4.46078e-14 0)
(580 -8.67023e-14 0)
(580 -5.6718e-14 0)
(580 -1.40662e-13 0)
(580 -5.6838e-14 0)
(580 -9.24151e-14 0)
(580 -3.60162e-14 0)
(580 8.05381e-14 0)
(580 1.90481e-13 0)
(580 2.10019e-13 0)
(580 1.45271e-13 0)
(580 -6.70708e-15 0)
(580 -4.76788e-13 0)
(580 -5.24053e-13 0)
(580 -8.3163e-13 0)
(580 -8.57975e-13 0)
(580 -9.12599e-13 0)
(580 -1.07197e-12 0)
(580 -1.22322e-12 0)
(580 -1.16177e-12 0)
(580 -1.1967e-12 0)
(580 -1.19067e-12 0)
(580 -1.26555e-12 0)
(580 -1.41426e-12 0)
(580 -1.46536e-12 0)
(580 -1.71579e-12 0)
(580 -1.67514e-12 0)
(580 -1.74109e-12 0)
(580 -1.76635e-12 0)
(580 -1.74385e-12 0)
(580 -1.75271e-12 0)
(580 -1.52704e-12 0)
(580 -1.82917e-12 0)
(580 -1.94244e-12 0)
(580 -1.98122e-12 0)
(580 -2.07779e-12 0)
(580 -1.96107e-12 0)
(580 -1.82121e-12 0)
(580 -1.75224e-12 0)
(580 -1.72589e-12 0)
(580 -2.01726e-12 0)
(580 -2.2175e-12 0)
(580 -2.74556e-12 0)
(580 -3.06345e-12 0)
(580 -3.32589e-12 0)
(580 -3.38108e-12 0)
(580 -3.24279e-12 0)
(580 -3.253e-12 0)
(580 -3.18802e-12 0)
(580 -3.45339e-12 0)
(580 -3.69239e-12 0)
(580 -4.01641e-12 0)
(580 -4.72038e-12 0)
(580 -4.82518e-12 0)
(580 -4.95832e-12 0)
(580 -5.41046e-12 0)
(580 -5.32176e-12 0)
(580 -4.53089e-12 0)
(580 -4.33189e-12 0)
(580 -4.42206e-12 0)
(580 -4.49615e-12 0)
(580 -4.15742e-12 0)
(580 -3.57537e-12 0)
(580 -3.38756e-12 0)
(580 -2.93088e-12 0)
(580 -2.53974e-12 0)
(580 -2.36837e-12 0)
(580 -2.25e-12 0)
(580 -2.02165e-12 0)
(580 -1.86407e-12 0)
(580 -1.8039e-12 0)
(580 -1.5876e-12 0)
(580 -1.2062e-12 0)
(580 -1.71235e-12 0)
(580 -1.85655e-12 0)
(580 -1.75643e-12 0)
(580 -1.55197e-12 0)
(580 -1.48204e-12 0)
(580 -1.47872e-12 0)
(580 8.99891e-16 0)
(580 1.0354e-13 0)
(580 1.20361e-13 0)
(580 8.90666e-14 0)
(580 5.54662e-14 0)
(580 8.88426e-14 0)
(580 1.42898e-13 0)
(580 2.74582e-13 0)
(580 3.72573e-13 0)
(580 4.11092e-13 0)
(580 3.29619e-13 0)
(580 2.67187e-13 0)
(580 2.4755e-13 0)
(580 2.38792e-13 0)
(580 4.24465e-15 0)
(580 -4.42421e-13 0)
(580 -9.86731e-13 0)
(580 -1.76616e-12 0)
(580 -2.06523e-12 0)
(580 -2.08423e-12 0)
(580 -1.92589e-12 0)
(580 -2.12303e-12 0)
(580 -2.31263e-12 0)
(580 -2.16123e-12 0)
(580 -1.92647e-12 0)
(580 -1.72615e-12 0)
(580 -1.91986e-12 0)
(580 -2.03911e-12 0)
(580 -2.18896e-12 0)
(580 -1.98115e-12 0)
(580 -2.11291e-12 0)
(580 -2.33553e-12 0)
(580 -2.34259e-12 0)
(580 -2.14142e-12 0)
(580 -1.99976e-12 0)
(580 -1.93747e-12 0)
(580 -1.97842e-12 0)
(580 -2.08742e-12 0)
(580 -2.08876e-12 0)
(580 -2.1156e-12 0)
(580 -2.20317e-12 0)
(580 -2.31227e-12 0)
(580 -2.40834e-12 0)
(580 -2.76412e-12 0)
(580 -3.06606e-12 0)
(580 -3.18106e-12 0)
(580 -3.21622e-12 0)
(580 -3.27904e-12 0)
(580 -3.27192e-12 0)
(580 -3.3301e-12 0)
(580 -3.40555e-12 0)
(580 -3.54849e-12 0)
(580 -3.91449e-12 0)
(580 -4.42926e-12 0)
(580 -4.68077e-12 0)
(580 -4.87834e-12 0)
(580 -5.06121e-12 0)
(580 -5.3405e-12 0)
(580 -5.46529e-12 0)
(580 -5.5391e-12 0)
(580 -5.38259e-12 0)
(580 -4.63812e-12 0)
(580 -4.36697e-12 0)
(580 -3.92816e-12 0)
(580 -3.42015e-12 0)
(580 -3.05493e-12 0)
(580 -3.07507e-12 0)
(580 -3.26941e-12 0)
(580 -2.98476e-12 0)
(580 -2.43422e-12 0)
(580 -1.82018e-12 0)
(580 -1.31969e-12 0)
(580 -6.19981e-13 0)
(580 -2.87085e-13 0)
(580 -1.85234e-13 0)
(580 -2.18211e-13 0)
(580 -1.78516e-13 0)
(580 -2.82001e-13 0)
(580 -3.12865e-13 0)
(580 -5.73789e-13 0)
(580 -5.81896e-14 0)
(580 -1.42894e-14 0)
(580 -1.90443e-14 0)
(580 -1.51285e-15 0)
(580 7.79928e-14 0)
(580 1.77898e-13 0)
(580 2.74262e-13 0)
(580 7.2388e-14 0)
(580 -3.2171e-14 0)
(580 -1.11121e-13 0)
(580 -2.08933e-13 0)
(580 -3.21689e-13 0)
(580 -4.78592e-13 0)
(580 -5.32353e-13 0)
(580 -7.15526e-13 0)
(580 -7.15154e-13 0)
(580 -1.0176e-12 0)
(580 -1.23306e-12 0)
(580 -1.29481e-12 0)
(580 -1.55563e-12 0)
(580 -1.98278e-12 0)
(580 -2.15442e-12 0)
(580 -2.46752e-12 0)
(580 -2.41421e-12 0)
(580 -1.7852e-12 0)
(580 -1.59669e-12 0)
(580 -1.57135e-12 0)
(580 -1.72354e-12 0)
(580 -1.77091e-12 0)
(580 -1.75858e-12 0)
(580 -1.83811e-12 0)
(580 -1.85951e-12 0)
(580 -1.86491e-12 0)
(580 -1.80934e-12 0)
(580 -1.84924e-12 0)
(580 -1.95287e-12 0)
(580 -2.10668e-12 0)
(580 -2.20739e-12 0)
(580 -2.33874e-12 0)
(580 -2.40844e-12 0)
(580 -2.55179e-12 0)
(580 -2.60957e-12 0)
(580 -2.69346e-12 0)
(580 -2.8971e-12 0)
(580 -2.9765e-12 0)
(580 -3.2064e-12 0)
(580 -3.38894e-12 0)
(580 -3.52808e-12 0)
(580 -3.60025e-12 0)
(580 -3.73698e-12 0)
(580 -3.7651e-12 0)
(580 -3.79393e-12 0)
(580 -4.09066e-12 0)
(580 -4.42643e-12 0)
(580 -4.65711e-12 0)
(580 -4.70327e-12 0)
(580 -5.01399e-12 0)
(580 -5.15139e-12 0)
(580 -5.13561e-12 0)
(580 -4.97675e-12 0)
(580 -5.0659e-12 0)
(580 -4.87201e-12 0)
(580 -4.77175e-12 0)
(580 -4.44664e-12 0)
(580 -4.00952e-12 0)
(580 -3.71077e-12 0)
(580 -3.23513e-12 0)
(580 -2.91205e-12 0)
(580 -2.62622e-12 0)
(580 -2.57225e-12 0)
(580 -2.4307e-12 0)
(580 -2.08027e-12 0)
(580 -1.84309e-12 0)
(580 -1.88648e-12 0)
(580 -1.72786e-12 0)
(580 -1.53371e-12 0)
(580 -1.45959e-12 0)
(580 -1.44602e-12 0)
(580 -1.43454e-12 0)
(580 -1.43196e-12 0)
(580 -1.3642e-13 0)
(580 -3.20227e-13 0)
(580 -4.87889e-13 0)
(580 -4.36996e-13 0)
(580 -5.07889e-13 0)
(580 -6.1051e-13 0)
(580 -5.80897e-13 0)
(580 -7.43888e-13 0)
(580 -7.01586e-13 0)
(580 -8.11055e-13 0)
(580 -8.16691e-13 0)
(580 -9.04558e-13 0)
(580 -1.01931e-12 0)
(580 -1.1623e-12 0)
(580 -1.08733e-12 0)
(580 -1.17305e-12 0)
(580 -1.18654e-12 0)
(580 -1.12665e-12 0)
(580 -1.18289e-12 0)
(580 -1.09297e-12 0)
(580 -1.31743e-12 0)
(580 -1.52263e-12 0)
(580 -1.80991e-12 0)
(580 -1.86861e-12 0)
(580 -2.0536e-12 0)
(580 -2.05458e-12 0)
(580 -1.99747e-12 0)
(580 -1.87399e-12 0)
(580 -1.58788e-12 0)
(580 -1.56584e-12 0)
(580 -1.52919e-12 0)
(580 -1.45656e-12 0)
(580 -1.48598e-12 0)
(580 -1.5415e-12 0)
(580 -1.71435e-12 0)
(580 -1.82747e-12 0)
(580 -2.00376e-12 0)
(580 -2.17863e-12 0)
(580 -2.3914e-12 0)
(580 -2.64765e-12 0)
(580 -2.92608e-12 0)
(580 -3.18494e-12 0)
(580 -3.47434e-12 0)
(580 -3.50145e-12 0)
(580 -3.58126e-12 0)
(580 -3.7845e-12 0)
(580 -4.18933e-12 0)
(580 -4.26797e-12 0)
(580 -4.68764e-12 0)
(580 -4.75933e-12 0)
(580 -5.02581e-12 0)
(580 -5.23456e-12 0)
(580 -5.33526e-12 0)
(580 -5.52201e-12 0)
(580 -5.7436e-12 0)
(580 -5.97664e-12 0)
(580 -5.91671e-12 0)
(580 -5.76322e-12 0)
(580 -5.59711e-12 0)
(580 -5.318e-12 0)
(580 -5.07963e-12 0)
(580 -5.03151e-12 0)
(580 -4.9765e-12 0)
(580 -4.83331e-12 0)
(580 -4.89446e-12 0)
(580 -4.97726e-12 0)
(580 -4.78306e-12 0)
(580 -4.65339e-12 0)
(580 -4.45675e-12 0)
(580 -4.49652e-12 0)
(580 -4.77397e-12 0)
(580 -4.56471e-12 0)
(580 -4.31235e-12 0)
(580 -4.23024e-12 0)
(580 -3.8452e-12 0)
(580 -3.93404e-12 0)
(580 -3.95577e-12 0)
(580 -3.76022e-12 0)
(580 -3.55646e-12 0)
(580 -3.0833e-12 0)
(580 6.30941e-14 0)
(580 7.74842e-14 0)
(580 1.05852e-13 0)
(580 -1.66048e-13 0)
(580 -3.50384e-13 0)
(580 -5.02806e-13 0)
(580 -6.35878e-13 0)
(580 -5.59767e-13 0)
(580 -4.83691e-13 0)
(580 -4.29244e-13 0)
(580 -5.40838e-13 0)
(580 -5.48112e-13 0)
(580 -5.62306e-13 0)
(580 -7.33511e-13 0)
(580 -8.42466e-13 0)
(580 -9.68965e-13 0)
(580 -1.22675e-12 0)
(580 -1.21768e-12 0)
(580 -1.24767e-12 0)
(580 -1.3078e-12 0)
(580 -1.3695e-12 0)
(580 -1.42681e-12 0)
(580 -1.45198e-12 0)
(580 -1.5396e-12 0)