/*--------------------------------*- C++ -*----------------------------------*\
| =========                 |                                                 |
| \\      /  F ield         | OpenFOAM: The Open Source CFD Toolbox           |
|  \\    /   O peration     | Version:  2306                                  |
|   \\  /    A nd           | Website:  www.openfoam.com                      |
|    \\/     M anipulation  |                                                 |
\*---------------------------------------------------------------------------*/
FoamFile
{
    version     2.0;
    format      ascii;
    arch        "LSB;label=32;scalar=64";
    class       volVectorField;
    location    "7e-05";
    object      U;
}
// * * * * * * * * * * * * * * * * * * * * * * * * * * * * * * * * * * * * * //

dimensions      [0 1 -1 0 0 0 0];

internalField   nonuniform List<vector> 
9044
(
(580 -1.9637e-12 0)
(580 -1.92118e-12 0)
(580 -2.39405e-12 0)
(580 -2.28099e-12 0)
(580 -5.06678e-13 0)
(580 -5.87071e-13 0)
(580 8.26555e-13 0)
(580 8.19149e-13 0)
(580 7.50319e-13 0)
(580 7.03064e-13 0)
(580 4.6578e-13 0)
(580 4.5794e-13 0)
(580 7.31866e-13 0)
(580 7.75886e-13 0)
(580 1.54991e-12 0)
(580 1.52823e-12 0)
(580 8.56407e-13 0)
(580 8.53137e-13 0)
(580 1.93297e-14 0)
(580 1.35418e-14 0)
(580 1.08962e-12 0)
(580 1.00037e-12 0)
(580 1.74944e-12 0)
(580 1.79133e-12 0)
(580 3.19892e-13 0)
(580 4.38581e-13 0)
(580 -6.72493e-13 0)
(580 -5.64734e-13 0)
(580 3.7786e-13 0)
(580 2.79444e-13 0)
(580 9.7568e-13 0)
(580 9.00315e-13 0)
(580 5.66455e-13 0)
(580 4.8242e-13 0)
(580 5.91751e-14 0)
(580 -6.21765e-13 0)
(580 -4.71633e-13 0)
(580 -4.44948e-13 0)
(580 -2.62799e-13 0)
(580 1.67791e-14 0)
(580 4.35633e-14 0)
(580 8.7443e-14 0)
(580 1.20914e-13 0)
(580 5.71219e-13 0)
(580 -8.9715e-13 0)
(580 -5.46635e-13 0)
(580 -7.83417e-13 0)
(580 -8.75479e-13 0)
(580 -1.1943e-12 0)
(580 -1.36774e-12 0)
(580 -1.01516e-12 0)
(580 -5.58729e-13 0)
(580 -2.20573e-13 0)
(580 -6.07456e-13 0)
(580 -8.18972e-13 0)
(580 -1.29163e-12 0)
(580 -1.61095e-12 0)
(580 -2.07221e-12 0)
(580 -2.216e-12 0)
(580 -2.39435e-12 0)
(580 -2.47543e-12 0)
(580 -2.43367e-12 0)
(580 -2.67374e-12 0)
(580 -2.79295e-12 0)
(580 -3.09578e-12 0)
(580 -3.15214e-12 0)
(580 -1.95195e-12 0)
(580 -1.70495e-12 0)
(580 -1.54839e-12 0)
(580 -2.00017e-12 0)
(580 -2.02966e-12 0)
(580 -2.2772e-12 0)
(580 -2.46044e-12 0)
(580 -2.60914e-12 0)
(580 -1.92144e-12 0)
(580 -1.61477e-12 0)
(580 -1.69471e-12 0)
(580 -1.52212e-12 0)
(580 -1.46724e-12 0)
(580 -1.6404e-12 0)
(580 -1.63456e-12 0)
(580 -1.76503e-12 0)
(580 -1.75506e-12 0)
(580 -1.52987e-12 0)
(580 -1.78711e-12 0)
(580 -2.46106e-12 0)
(580 -3.03631e-12 0)
(580 -3.18335e-12 0)
(580 -2.41487e-12 0)
(580 -1.96011e-12 0)
(580 -1.47793e-12 0)
(580 -9.6044e-13 0)
(580 -2.41664e-13 0)
(580 1.3539e-13 0)
(580 4.84936e-13 0)
(580 5.30501e-13 0)
(580 5.39872e-13 0)
(580 8.43176e-13 0)
(580 9.62086e-13 0)
(580 1.00083e-12 0)
(580 1.07617e-12 0)
(580 7.57081e-13 0)
(580 8.19277e-13 0)
(580 1.06231e-12 0)
(580 5.90163e-13 0)
(580 2.40652e-13 0)
(580 3.61348e-13 0)
(580 1.48094e-13 0)
(580 -9.50839e-13 0)
(580 -1.1258e-12 0)
(580 -8.28455e-13 0)
(580 -6.51952e-13 0)
(580 -7.11948e-13 0)
(580 -3.01421e-13 0)
(580 -1.22505e-12 0)
(580 -1.2249e-12 0)
(580 -1.66181e-12 0)
(580 -2.06251e-12 0)
(580 -2.21903e-12 0)
(580 -2.48673e-12 0)
(580 -2.72879e-12 0)
(580 -3.0302e-12 0)
(580 -2.76048e-12 0)
(580 -3.04555e-12 0)
(580 -3.21093e-12 0)
(580 -3.82441e-12 0)
(580 -3.89963e-12 0)
(580 -4.29583e-12 0)
(580 -4.6588e-12 0)
(580 -4.53058e-12 0)
(580 -3.83622e-12 0)
(580 -3.81806e-12 0)
(580 -4.00663e-12 0)
(580 -4.17078e-12 0)
(580 -4.4168e-12 0)
(580 -4.42276e-12 0)
(580 -3.86367e-12 0)
(580 -2.69098e-12 0)
(580 -2.33596e-12 0)
(580 -2.66944e-12 0)
(580 -3.10667e-12 0)
(580 -3.13397e-12 0)
(580 -3.01313e-12 0)
(580 -2.62935e-12 0)
(580 -2.32069e-12 0)
(580 -1.547e-12 0)
(580 -1.39826e-12 0)
(580 -1.44819e-12 0)
(580 -1.48759e-12 0)
(580 -1.28532e-12 0)
(580 -1.43796e-12 0)
(580 -1.63294e-12 0)
(580 -2.15572e-12 0)
(580 -2.48729e-12 0)
(580 -2.92345e-12 0)
(580 -2.68851e-12 0)
(580 -2.30352e-12 0)
(580 -2.95591e-12 0)
(580 -3.72509e-12 0)
(580 -3.17094e-12 0)
(580 -2.47521e-12 0)
(580 -2.28767e-12 0)
(580 -1.33209e-12 0)
(580 -9.82438e-13 0)
(580 -3.95153e-13 0)
(580 6.65853e-13 0)
(580 1.34382e-12 0)
(580 1.77057e-12 0)
(580 1.76758e-12 0)
(580 1.47944e-12 0)
(580 9.88997e-13 0)
(580 1.12386e-12 0)
(580 8.79054e-13 0)
(580 4.04851e-13 0)
(580 8.63913e-14 0)
(580 2.98131e-13 0)
(580 3.42346e-13 0)
(580 1.35517e-13 0)
(580 6.02898e-14 0)
(580 1.74712e-13 0)
(580 3.70572e-13 0)
(580 5.30374e-13 0)
(580 9.99692e-13 0)
(580 1.29134e-12 0)
(580 -1.57411e-12 0)
(580 -1.77309e-12 0)
(580 -2.43627e-12 0)
(580 -3.21974e-12 0)
(580 -3.31642e-12 0)
(580 -3.26519e-12 0)
(580 -3.59255e-12 0)
(580 -4.14287e-12 0)
(580 -4.11436e-12 0)
(580 -3.85895e-12 0)
(580 -4.6606e-12 0)
(580 -4.8483e-12 0)
(580 -4.85106e-12 0)
(580 -5.1308e-12 0)
(580 -4.89989e-12 0)
(580 -4.88714e-12 0)
(580 -5.17342e-12 0)
(580 -5.4931e-12 0)
(580 -5.60832e-12 0)
(580 -5.38005e-12 0)
(580 -5.20767e-12 0)
(580 -4.71704e-12 0)
(580 -4.54823e-12 0)
(580 -4.4623e-12 0)
(580 -4.49314e-12 0)
(580 -4.58636e-12 0)
(580 -4.89427e-12 0)
(580 -4.5391e-12 0)
(580 -4.23518e-12 0)
(580 -3.89024e-12 0)
(580 -3.79976e-12 0)
(580 -3.75127e-12 0)
(580 -2.7087e-12 0)
(580 -1.85377e-12 0)
(580 -1.8527e-12 0)
(580 -1.97819e-12 0)
(580 -2.10597e-12 0)
(580 -2.48021e-12 0)
(580 -2.8362e-12 0)
(580 -2.9356e-12 0)
(580 -2.37748e-12 0)
(580 -2.31099e-12 0)
(580 -1.87758e-12 0)
(580 -1.65332e-12 0)
(580 -1.61412e-12 0)
(580 -1.99517e-12 0)
(580 -2.43079e-12 0)
(580 -2.49999e-12 0)
(580 -2.37863e-12 0)
(580 -2.00197e-12 0)
(580 -1.9665e-12 0)
(580 -8.12469e-13 0)
(580 -3.20905e-13 0)
(580 -2.10981e-13 0)
(580 4.57067e-13 0)
(580 8.81744e-13 0)
(580 1.26822e-12 0)
(580 1.15417e-12 0)
(580 1.19368e-12 0)
(580 9.72355e-13 0)
(580 1.30546e-12 0)
(580 1.45705e-12 0)
(580 1.00049e-12 0)
(580 6.40033e-13 0)
(580 4.1266e-13 0)
(580 3.55348e-13 0)
(580 6.13884e-13 0)
(580 7.78685e-13 0)
(580 1.01828e-12 0)
(580 1.4728e-12 0)
(580 -1.72468e-12 0)
(580 -2.36585e-12 0)
(580 -2.56544e-12 0)
(580 -2.48162e-12 0)
(580 -2.94739e-12 0)
(580 -3.20774e-12 0)
(580 -3.43204e-12 0)
(580 -4.00549e-12 0)
(580 -3.77633e-12 0)
(580 -4.30274e-12 0)
(580 -5.023e-12 0)
(580 -5.46322e-12 0)
(580 -6.005e-12 0)
(580 -6.33493e-12 0)
(580 -6.35113e-12 0)
(580 -6.2647e-12 0)
(580 -6.72586e-12 0)
(580 -6.80465e-12 0)
(580 -6.64448e-12 0)
(580 -6.50391e-12 0)
(580 -6.51265e-12 0)
(580 -6.36654e-12 0)
(580 -6.26665e-12 0)
(580 -6.33642e-12 0)
(580 -6.26214e-12 0)
(580 -5.64119e-12 0)
(580 -5.43362e-12 0)
(580 -5.03709e-12 0)
(580 -4.93642e-12 0)
(580 -4.74698e-12 0)
(580 -4.81702e-12 0)
(580 -4.69968e-12 0)
(580 -4.02736e-12 0)
(580 -2.96552e-12 0)
(580 -2.78526e-12 0)
(580 -2.97015e-12 0)
(580 -3.03279e-12 0)
(580 -2.83009e-12 0)
(580 -2.59258e-12 0)
(580 -2.34743e-12 0)
(580 -1.88428e-12 0)
(580 -1.27204e-12 0)
(580 -1.29536e-12 0)
(580 -1.37797e-12 0)
(580 -1.0462e-12 0)
(580 -1.26534e-12 0)
(580 -2.23067e-12 0)
(580 -2.5666e-12 0)
(580 -3.26282e-12 0)
(580 -3.44138e-12 0)
(580 -3.1421e-12 0)
(580 -2.56136e-12 0)
(580 -2.11121e-12 0)
(580 -1.52709e-12 0)
(580 -9.33408e-13 0)
(580 -7.61917e-14 0)
(580 5.07824e-13 0)
(580 8.77351e-13 0)
(580 1.1486e-12 0)
(580 1.69854e-12 0)
(580 1.95436e-12 0)
(580 1.80254e-12 0)
(580 1.80116e-12 0)
(580 1.86774e-12 0)
(580 1.93684e-12 0)
(580 1.94722e-12 0)
(580 1.13961e-12 0)
(580 8.27832e-13 0)
(580 6.49267e-13 0)
(580 4.94058e-13 0)
(580 -1.69164e-12 0)
(580 -1.78949e-12 0)
(580 -1.94209e-12 0)
(580 -2.39699e-12 0)
(580 -2.74708e-12 0)
(580 -3.16077e-12 0)
(580 -3.48447e-12 0)
(580 -4.16398e-12 0)
(580 -4.49595e-12 0)
(580 -4.53352e-12 0)
(580 -4.67386e-12 0)
(580 -4.88204e-12 0)
(580 -5.25411e-12 0)
(580 -5.87102e-12 0)
(580 -6.18258e-12 0)
(580 -6.29811e-12 0)
(580 -6.41102e-12 0)
(580 -6.48196e-12 0)
(580 -6.58991e-12 0)
(580 -7.02591e-12 0)
(580 -7.0427e-12 0)
(580 -6.84931e-12 0)
(580 -6.66828e-12 0)
(580 -6.40536e-12 0)
(580 -6.32526e-12 0)
(580 -6.49644e-12 0)
(580 -6.25434e-12 0)
(580 -6.21953e-12 0)
(580 -6.49097e-12 0)
(580 -6.67345e-12 0)
(580 -6.56277e-12 0)
(580 -5.97268e-12 0)
(580 -5.25294e-12 0)
(580 -4.67404e-12 0)
(580 -4.41611e-12 0)
(580 -3.72568e-12 0)
(580 -3.17505e-12 0)
(580 -2.46089e-12 0)
(580 -2.46213e-12 0)
(580 -2.8921e-12 0)
(580 -2.26925e-12 0)
(580 -1.38936e-12 0)
(580 -1.61717e-12 0)
(580 -1.8175e-12 0)
(580 -2.20326e-12 0)
(580 -1.98891e-12 0)
(580 -2.2509e-12 0)
(580 -3.12596e-12 0)
(580 -3.62075e-12 0)
(580 -3.71165e-12 0)
(580 -2.82342e-12 0)
(580 -2.47933e-12 0)
(580 -1.76349e-12 0)
(580 -1.4637e-12 0)
(580 -1.02545e-12 0)
(580 3.13527e-13 0)
(580 9.15846e-13 0)
(580 1.57222e-12 0)
(580 1.9919e-12 0)
(580 2.06094e-12 0)
(580 2.29943e-12 0)
(580 2.3509e-12 0)
(580 2.25042e-12 0)
(580 2.17818e-12 0)
(580 2.23934e-12 0)
(580 2.06974e-12 0)
(580 1.6432e-12 0)
(580 1.11112e-12 0)
(580 8.44758e-13 0)
(580 3.75815e-13 0)
(580 -2.16214e-12 0)
(580 -2.4314e-12 0)
(580 -2.90946e-12 0)
(580 -3.26717e-12 0)
(580 -3.7074e-12 0)
(580 -4.30779e-12 0)
(580 -4.80463e-12 0)
(580 -5.4427e-12 0)
(580 -5.72306e-12 0)
(580 -5.63657e-12 0)
(580 -5.88764e-12 0)
(580 -5.76664e-12 0)
(580 -5.66418e-12 0)
(580 -5.76063e-12 0)
(580 -5.79073e-12 0)
(580 -5.71947e-12 0)
(580 -5.38837e-12 0)
(580 -5.20966e-12 0)
(580 -5.12599e-12 0)
(580 -5.34357e-12 0)
(580 -5.6528e-12 0)
(580 -5.3609e-12 0)
(580 -4.92546e-12 0)
(580 -4.91752e-12 0)
(580 -4.98291e-12 0)
(580 -5.08482e-12 0)
(580 -5.39237e-12 0)
(580 -5.99002e-12 0)
(580 -6.24279e-12 0)
(580 -6.53407e-12 0)
(580 -5.97782e-12 0)
(580 -5.75962e-12 0)
(580 -5.5077e-12 0)
(580 -4.96078e-12 0)
(580 -4.89797e-12 0)
(580 -4.66536e-12 0)
(580 -3.82488e-12 0)
(580 -3.01178e-12 0)
(580 -2.87106e-12 0)
(580 -2.84596e-12 0)
(580 -2.03028e-12 0)
(580 -1.27208e-12 0)
(580 -1.03054e-12 0)
(580 -9.63175e-13 0)
(580 -7.35814e-13 0)
(580 -6.18436e-13 0)
(580 -1.54406e-12 0)
(580 -1.65231e-12 0)
(580 -1.75511e-12 0)
(580 -1.84055e-12 0)
(580 -2.41094e-12 0)
(580 -2.4819e-12 0)
(580 -2.50304e-12 0)
(580 -2.25643e-12 0)
(580 -1.55001e-12 0)
(580 -1.10553e-12 0)
(580 -1.27082e-12 0)
(580 -1.0072e-12 0)
(580 6.06814e-13 0)
(580 1.00247e-12 0)
(580 9.01056e-13 0)
(580 6.80558e-13 0)
(580 7.65198e-13 0)
(580 6.19953e-13 0)
(580 6.28643e-13 0)
(580 7.35368e-13 0)
(580 7.79868e-13 0)
(580 5.29006e-13 0)
(580 3.94568e-13 0)
(580 8.64721e-14 0)
(580 -2.6389e-12 0)
(580 -3.26661e-12 0)
(580 -3.80246e-12 0)
(580 -4.44916e-12 0)
(580 -4.6575e-12 0)
(580 -4.97435e-12 0)
(580 -5.34857e-12 0)
(580 -5.67136e-12 0)
(580 -5.90431e-12 0)
(580 -6.45329e-12 0)
(580 -6.98848e-12 0)
(580 -7.3855e-12 0)
(580 -7.32005e-12 0)
(580 -7.2686e-12 0)
(580 -6.99099e-12 0)
(580 -6.7591e-12 0)
(580 -6.3189e-12 0)
(580 -5.44882e-12 0)
(580 -4.77597e-12 0)
(580 -4.53075e-12 0)
(580 -4.37902e-12 0)
(580 -4.0602e-12 0)
(580 -3.98557e-12 0)
(580 -4.18983e-12 0)
(580 -4.3929e-12 0)
(580 -4.31756e-12 0)
(580 -4.4259e-12 0)
(580 -4.59925e-12 0)
(580 -4.19041e-12 0)
(580 -3.67476e-12 0)
(580 -3.99774e-12 0)
(580 -4.07692e-12 0)
(580 -4.08066e-12 0)
(580 -4.07344e-12 0)
(580 -4.12788e-12 0)
(580 -3.96173e-12 0)
(580 -3.85601e-12 0)
(580 -3.07901e-12 0)
(580 -2.32717e-12 0)
(580 -1.69097e-12 0)
(580 -1.98343e-12 0)
(580 -2.19511e-12 0)
(580 -2.20151e-12 0)
(580 -1.99186e-12 0)
(580 -1.01987e-12 0)
(580 -3.7705e-13 0)
(580 -4.73949e-13 0)
(580 -5.04949e-13 0)
(580 -6.86963e-13 0)
(580 -8.06448e-13 0)
(580 -1.35667e-12 0)
(580 -1.88731e-12 0)
(580 -2.32065e-12 0)
(580 -2.56865e-12 0)
(580 -2.45722e-12 0)
(580 -2.47541e-12 0)
(580 -2.12232e-12 0)
(580 -1.76567e-12 0)
(580 -1.45585e-12 0)
(580 -9.60203e-13 0)
(580 -4.61067e-13 0)
(580 -1.69536e-13 0)
(580 5.26412e-14 0)
(580 2.88924e-14 0)
(580 -1.62177e-13 0)
(580 -4.87474e-14 0)
(580 2.16202e-13 0)
(580 2.06075e-13 0)
(580 1.47934e-13 0)
(580 -3.67373e-14 0)
(580 -3.2925e-12 0)
(580 -3.55775e-12 0)
(580 -3.81827e-12 0)
(580 -4.25716e-12 0)
(580 -5.12874e-12 0)
(580 -5.63565e-12 0)
(580 -5.77925e-12 0)
(580 -5.99776e-12 0)
(580 -6.18668e-12 0)
(580 -6.07127e-12 0)
(580 -6.17241e-12 0)
(580 -6.36234e-12 0)
(580 -6.46184e-12 0)
(580 -6.31097e-12 0)
(580 -5.78361e-12 0)
(580 -5.72533e-12 0)
(580 -5.79367e-12 0)
(580 -5.98005e-12 0)
(580 -5.7525e-12 0)
(580 -5.53158e-12 0)
(580 -5.00387e-12 0)
(580 -4.45536e-12 0)
(580 -4.27735e-12 0)
(580 -4.18196e-12 0)
(580 -4.05411e-12 0)
(580 -3.88731e-12 0)
(580 -3.90981e-12 0)
(580 -3.30143e-12 0)
(580 -2.79245e-12 0)
(580 -2.49552e-12 0)
(580 -2.5165e-12 0)
(580 -2.60451e-12 0)
(580 -2.86263e-12 0)
(580 -3.01811e-12 0)
(580 -2.28295e-12 0)
(580 -1.83422e-12 0)
(580 -1.42974e-12 0)
(580 -9.6386e-13 0)
(580 -4.29343e-13 0)
(580 -4.22562e-13 0)
(580 -6.39264e-13 0)
(580 -8.28819e-13 0)
(580 -1.2066e-12 0)
(580 -1.38041e-12 0)
(580 -7.53003e-13 0)
(580 -6.08672e-13 0)
(580 -4.20748e-13 0)
(580 -5.34851e-13 0)
(580 -7.19892e-13 0)
(580 -7.71029e-13 0)
(580 -4.85923e-13 0)
(580 -1.24918e-12 0)
(580 -1.80667e-12 0)
(580 -2.11869e-12 0)
(580 -2.27462e-12 0)
(580 -2.4468e-12 0)
(580 -2.38617e-12 0)
(580 -2.44873e-12 0)
(580 -2.05065e-12 0)
(580 -9.0371e-13 0)
(580 -2.43287e-13 0)
(580 -5.74166e-13 0)
(580 -6.85066e-13 0)
(580 -3.58268e-13 0)
(580 -2.33767e-13 0)
(580 -1.34586e-13 0)
(580 -1.30525e-13 0)
(580 -1.17512e-13 0)
(580 -1.8428e-13 0)
(580 -4.46757e-13 0)
(580 -2.96036e-12 0)
(580 -3.03859e-12 0)
(580 -3.14236e-12 0)
(580 -3.24391e-12 0)
(580 -3.58704e-12 0)
(580 -4.17726e-12 0)
(580 -4.78924e-12 0)
(580 -5.59179e-12 0)
(580 -5.7661e-12 0)
(580 -5.57018e-12 0)
(580 -5.28475e-12 0)
(580 -5.25351e-12 0)
(580 -4.73631e-12 0)
(580 -4.1803e-12 0)
(580 -4.43351e-12 0)
(580 -4.53036e-12 0)
(580 -4.77182e-12 0)
(580 -4.97762e-12 0)
(580 -5.05263e-12 0)
(580 -4.42637e-12 0)
(580 -4.05188e-12 0)
(580 -3.97261e-12 0)
(580 -3.75629e-12 0)
(580 -3.24912e-12 0)
(580 -2.54073e-12 0)
(580 -2.23402e-12 0)
(580 -2.12917e-12 0)
(580 -2.0969e-12 0)
(580 -2.09494e-12 0)
(580 -2.03422e-12 0)
(580 -2.11039e-12 0)
(580 -2.40619e-12 0)
(580 -2.76519e-12 0)
(580 -2.622e-12 0)
(580 -2.05413e-12 0)
(580 -1.63067e-12 0)
(580 -1.00422e-12 0)
(580 -9.3717e-13 0)
(580 -6.90084e-13 0)
(580 -2.5877e-13 0)
(580 -9.31744e-14 0)
(580 -1.14387e-13 0)
(580 1.33338e-13 0)
(580 1.02658e-13 0)
(580 -5.05001e-13 0)
(580 -7.46184e-13 0)
(580 -6.81767e-13 0)
(580 -6.98211e-13 0)
(580 -7.25422e-13 0)
(580 -5.07533e-13 0)
(580 -6.75774e-13 0)
(580 -8.01808e-13 0)
(580 -1.04565e-12 0)
(580 -1.23112e-12 0)
(580 -1.48177e-12 0)
(580 -1.54341e-12 0)
(580 -1.41604e-12 0)
(580 -1.39373e-12 0)
(580 -1.17441e-12 0)
(580 -8.08552e-13 0)
(580 -3.39971e-13 0)
(580 -4.64903e-13 0)
(580 -1.36361e-12 0)
(580 -1.37953e-12 0)
(580 -1.1926e-12 0)
(580 -1.24343e-12 0)
(580 -1.33152e-12 0)
(580 -1.09532e-12 0)
(580 -1.22899e-12 0)
(580 -1.36579e-12 0)
(580 -5.56263e-12 0)
(580 -5.82415e-12 0)
(580 -6.48854e-12 0)
(580 -6.58192e-12 0)
(580 -6.51214e-12 0)
(580 -6.75575e-12 0)
(580 -6.78951e-12 0)
(580 -6.77905e-12 0)
(580 -6.81749e-12 0)
(580 -6.47273e-12 0)
(580 -6.35e-12 0)
(580 -6.11819e-12 0)
(580 -5.96578e-12 0)
(580 -6.00237e-12 0)
(580 -6.33946e-12 0)
(580 -6.54649e-12 0)
(580 -6.60519e-12 0)
(580 -6.5628e-12 0)
(580 -6.49304e-12 0)
(580 -6.23969e-12 0)
(580 -6.12145e-12 0)
(580 -5.87071e-12 0)
(580 -5.52214e-12 0)
(580 -5.04995e-12 0)
(580 -4.71982e-12 0)
(580 -4.47292e-12 0)
(580 -4.34138e-12 0)
(580 -3.92201e-12 0)
(580 -3.65126e-12 0)
(580 -3.62406e-12 0)
(580 -3.43543e-12 0)
(580 -3.28641e-12 0)
(580 -2.97622e-12 0)
(580 -2.91962e-12 0)
(580 -2.93138e-12 0)
(580 -2.7012e-12 0)
(580 -2.13526e-12 0)
(580 -1.58101e-12 0)
(580 -1.30515e-12 0)
(580 -7.28848e-13 0)
(580 -2.68652e-13 0)
(580 3.0968e-13 0)
(580 7.60984e-13 0)
(580 4.74587e-13 0)
(580 3.55172e-13 0)
(580 4.82174e-13 0)
(580 6.23187e-13 0)
(580 5.59757e-13 0)
(580 4.10854e-13 0)
(580 3.32372e-13 0)
(580 -4.41116e-13 0)
(580 -6.70213e-13 0)
(580 -9.55949e-13 0)
(580 -1.27471e-12 0)
(580 -1.37391e-12 0)
(580 -1.30404e-12 0)
(580 -1.43221e-12 0)
(580 -1.0787e-12 0)
(580 -9.13497e-13 0)
(580 -1.23914e-12 0)
(580 -1.77975e-12 0)
(580 -1.5358e-12 0)
(580 -1.14563e-12 0)
(580 -1.10765e-12 0)
(580 -1.0835e-12 0)
(580 -1.33442e-12 0)
(580 -1.44273e-12 0)
(580 -1.4929e-12 0)
(580 -1.35797e-12 0)
(580 -1.43608e-12 0)
(580 -6.89902e-12 0)
(580 -6.73809e-12 0)
(580 -6.28921e-12 0)
(580 -5.74283e-12 0)
(580 -5.26665e-12 0)
(580 -4.82192e-12 0)
(580 -4.30682e-12 0)
(580 -3.83562e-12 0)
(580 -3.39906e-12 0)
(580 -3.34954e-12 0)
(580 -3.32225e-12 0)
(580 -3.32732e-12 0)
(580 -3.36278e-12 0)
(580 -3.6974e-12 0)
(580 -3.80469e-12 0)
(580 -4.1214e-12 0)
(580 -4.42601e-12 0)
(580 -4.34036e-12 0)
(580 -4.33811e-12 0)
(580 -4.71144e-12 0)
(580 -4.89077e-12 0)
(580 -4.8021e-12 0)
(580 -4.81358e-12 0)
(580 -4.67531e-12 0)
(580 -4.30516e-12 0)
(580 -4.11872e-12 0)
(580 -3.9283e-12 0)
(580 -3.61018e-12 0)
(580 -3.28001e-12 0)
(580 -3.0512e-12 0)
(580 -2.86006e-12 0)
(580 -2.6899e-12 0)
(580 -2.6502e-12 0)
(580 -2.33161e-12 0)
(580 -2.27219e-12 0)
(580 -2.5697e-12 0)
(580 -2.82916e-12 0)
(580 -2.96162e-12 0)
(580 -2.55696e-12 0)
(580 -2.38224e-12 0)
(580 -2.17625e-12 0)
(580 -1.64644e-12 0)
(580 -1.5908e-12 0)
(580 -1.50609e-12 0)
(580 -1.18968e-12 0)
(580 -1.0783e-12 0)
(580 -9.81389e-13 0)
(580 -8.80419e-13 0)
(580 -9.17916e-13 0)
(580 -1.00553e-12 0)
(580 -1.28836e-12 0)
(580 -1.80011e-12 0)
(580 -2.4628e-12 0)
(580 -2.77846e-12 0)
(580 -2.86549e-12 0)
(580 -2.93148e-12 0)
(580 -2.88735e-12 0)
(580 -2.74403e-12 0)
(580 -2.4064e-12 0)
(580 -2.31129e-12 0)
(580 -2.02171e-12 0)
(580 -2.26278e-12 0)
(580 -2.09766e-12 0)
(580 -1.74011e-12 0)
(580 -1.7335e-12 0)
(580 -1.78566e-12 0)
(580 -1.8122e-12 0)
(580 -1.89751e-12 0)
(580 -1.93233e-12 0)
(580 -2.06025e-12 0)
(580 -4.73586e-12 0)
(580 -4.26899e-12 0)
(580 -3.78163e-12 0)
(580 -3.25799e-12 0)
(580 -3.0853e-12 0)
(580 -2.95107e-12 0)
(580 -2.52905e-12 0)
(580 -1.70604e-12 0)
(580 -1.39403e-12 0)
(580 -1.69822e-12 0)
(580 -1.93351e-12 0)
(580 -1.99223e-12 0)
(580 -2.01764e-12 0)
(580 -1.99862e-12 0)
(580 -1.89122e-12 0)
(580 -1.92169e-12 0)
(580 -1.89858e-12 0)
(580 -1.91834e-12 0)
(580 -2.19e-12 0)
(580 -2.26563e-12 0)
(580 -2.30417e-12 0)
(580 -2.45794e-12 0)
(580 -2.49197e-12 0)
(580 -2.48815e-12 0)
(580 -2.5211e-12 0)
(580 -2.42179e-12 0)
(580 -2.43142e-12 0)
(580 -2.35742e-12 0)
(580 -2.20115e-12 0)
(580 -2.20243e-12 0)
(580 -2.06298e-12 0)
(580 -1.77117e-12 0)
(580 -1.60353e-12 0)
(580 -1.51315e-12 0)
(580 -1.5396e-12 0)
(580 -1.8906e-12 0)
(580 -2.19871e-12 0)
(580 -2.38353e-12 0)
(580 -2.46874e-12 0)
(580 -2.0812e-12 0)
(580 -1.36642e-12 0)
(580 -1.34305e-12 0)
(580 -9.38653e-13 0)
(580 -8.6992e-13 0)
(580 -9.8241e-13 0)
(580 -1.19785e-12 0)
(580 -1.38389e-12 0)
(580 -1.25276e-12 0)
(580 -9.41791e-13 0)
(580 -9.62018e-13 0)
(580 -8.78913e-13 0)
(580 -9.62413e-13 0)
(580 -1.31611e-12 0)
(580 -1.60703e-12 0)
(580 -1.79006e-12 0)
(580 -2.02787e-12 0)
(580 -2.38207e-12 0)
(580 -2.44205e-12 0)
(580 -3.04099e-12 0)
(580 -3.51203e-12 0)
(580 -3.69426e-12 0)
(580 -3.48999e-12 0)
(580 -3.26044e-12 0)
(580 -3.17842e-12 0)
(580 -3.38229e-12 0)
(580 -3.16796e-12 0)
(580 -3.28417e-12 0)
(580 -3.55912e-12 0)
(580 -3.75483e-12 0)
(580 -3.71193e-12 0)
(580 -2.74932e-12 0)
(580 -2.57692e-12 0)
(580 -2.47257e-12 0)
(580 -2.3834e-12 0)
(580 -2.25252e-12 0)
(580 -2.22498e-12 0)
(580 -2.57367e-12 0)
(580 -2.89961e-12 0)
(580 -3.08067e-12 0)
(580 -2.88164e-12 0)
(580 -2.73321e-12 0)
(580 -2.48545e-12 0)
(580 -2.36342e-12 0)
(580 -2.17236e-12 0)
(580 -2.24404e-12 0)
(580 -2.11784e-12 0)
(580 -2.22877e-12 0)
(580 -2.37001e-12 0)
(580 -2.36584e-12 0)
(580 -2.10721e-12 0)
(580 -2.12339e-12 0)
(580 -2.21597e-12 0)
(580 -2.35187e-12 0)
(580 -2.51162e-12 0)
(580 -3.03437e-12 0)
(580 -3.11253e-12 0)
(580 -3.10095e-12 0)
(580 -3.22531e-12 0)
(580 -3.24368e-12 0)
(580 -3.12853e-12 0)
(580 -3.12239e-12 0)
(580 -2.9579e-12 0)
(580 -2.78891e-12 0)
(580 -2.80904e-12 0)
(580 -2.65466e-12 0)
(580 -2.36077e-12 0)
(580 -2.19009e-12 0)
(580 -2.30119e-12 0)
(580 -2.2931e-12 0)
(580 -2.25798e-12 0)
(580 -2.39848e-12 0)
(580 -2.30665e-12 0)
(580 -2.23435e-12 0)
(580 -2.33184e-12 0)
(580 -2.50413e-12 0)
(580 -2.61914e-12 0)
(580 -2.88462e-12 0)
(580 -3.02064e-12 0)
(580 -2.74221e-12 0)
(580 -2.68311e-12 0)
(580 -2.83986e-12 0)
(580 -3.04814e-12 0)
(580 -3.36032e-12 0)
(580 -3.36269e-12 0)
(580 -3.53811e-12 0)
(580 -3.73186e-12 0)
(580 -4.09079e-12 0)
(580 -4.16273e-12 0)
(580 -4.35797e-12 0)
(580 -4.36084e-12 0)
(580 -4.23491e-12 0)
(580 -4.19529e-12 0)
(580 -3.57489e-12 0)
(580 -3.30357e-12 0)
(580 -3.57403e-12 0)
(580 -3.74746e-12 0)
(580 -3.88994e-12 0)
(580 -4.02887e-12 0)
(580 -4.10253e-12 0)
(580 -4.19321e-12 0)
(580 -3.2434e-12 0)
(580 -3.33151e-12 0)
(580 -3.67451e-12 0)
(580 -3.8519e-12 0)
(580 -3.77318e-12 0)
(580 -3.71074e-12 0)
(580 -3.85853e-12 0)
(580 -4.21185e-12 0)
(580 -4.56188e-12 0)
(580 -4.73513e-12 0)
(580 -4.72248e-12 0)
(580 -4.62375e-12 0)
(580 -4.60395e-12 0)
(580 -4.56227e-12 0)
(580 -4.77849e-12 0)
(580 -4.90382e-12 0)
(580 -4.90971e-12 0)
(580 -4.62432e-12 0)
(580 -4.35814e-12 0)
(580 -4.11869e-12 0)
(580 -4.11718e-12 0)
(580 -4.19213e-12 0)
(580 -4.28789e-12 0)
(580 -4.50664e-12 0)
(580 -4.36344e-12 0)
(580 -4.34644e-12 0)
(580 -4.2567e-12 0)
(580 -4.09114e-12 0)
(580 -3.77398e-12 0)
(580 -3.41171e-12 0)
(580 -3.08093e-12 0)
(580 -3.06277e-12 0)
(580 -3.14029e-12 0)
(580 -3.23655e-12 0)
(580 -3.32e-12 0)
(580 -3.28588e-12 0)
(580 -3.06127e-12 0)
(580 -2.79996e-12 0)
(580 -2.78552e-12 0)
(580 -2.82498e-12 0)
(580 -2.85032e-12 0)
(580 -2.8899e-12 0)
(580 -3.03488e-12 0)
(580 -3.09157e-12 0)
(580 -3.21485e-12 0)
(580 -3.29828e-12 0)
(580 -3.06879e-12 0)
(580 -2.50278e-12 0)
(580 -2.27617e-12 0)
(580 -2.31965e-12 0)
(580 -2.65065e-12 0)
(580 -2.79155e-12 0)
(580 -2.64461e-12 0)
(580 -2.73241e-12 0)
(580 -3.0106e-12 0)
(580 -3.05249e-12 0)
(580 -3.06569e-12 0)
(580 -3.25104e-12 0)
(580 -3.2982e-12 0)
(580 -3.51358e-12 0)
(580 -3.77508e-12 0)
(580 -4.06202e-12 0)
(580 -4.31269e-12 0)
(580 -4.58283e-12 0)
(580 -4.41976e-12 0)
(580 -4.3513e-12 0)
(580 -4.04079e-12 0)
(580 -3.91273e-12 0)
(580 -3.57523e-12 0)
(580 -3.48943e-12 0)
(580 -4.43617e-12 0)
(580 -4.99669e-12 0)
(580 -5.08608e-12 0)
(580 -5.34391e-12 0)
(580 -5.40491e-12 0)
(580 -5.45322e-12 0)
(580 -5.44313e-12 0)
(580 -5.48503e-12 0)
(580 -5.54296e-12 0)
(580 -5.8706e-12 0)
(580 -5.74404e-12 0)
(580 -5.63388e-12 0)
(580 -5.8905e-12 0)
(580 -5.97227e-12 0)
(580 -5.96147e-12 0)
(580 -5.63604e-12 0)
(580 -5.45643e-12 0)
(580 -5.16542e-12 0)
(580 -4.91971e-12 0)
(580 -4.85648e-12 0)
(580 -4.95705e-12 0)
(580 -5.24202e-12 0)
(580 -5.52339e-12 0)
(580 -5.36705e-12 0)
(580 -5.01181e-12 0)
(580 -4.61764e-12 0)
(580 -4.4541e-12 0)
(580 -4.30556e-12 0)
(580 -4.35118e-12 0)
(580 -4.43255e-12 0)
(580 -4.46966e-12 0)
(580 -4.28041e-12 0)
(580 -3.88778e-12 0)
(580 -3.45891e-12 0)
(580 -3.12802e-12 0)
(580 -2.88297e-12 0)
(580 -2.6896e-12 0)
(580 -2.64559e-12 0)
(580 -2.3574e-12 0)
(580 -2.12904e-12 0)
(580 -2.08802e-12 0)
(580 -2.16926e-12 0)
(580 -2.24048e-12 0)
(580 -2.26865e-12 0)
(580 -2.21908e-12 0)
(580 -1.99873e-12 0)
(580 -2.05962e-12 0)
(580 -2.07146e-12 0)
(580 -2.25152e-12 0)
(580 -2.61895e-12 0)
(580 -2.58187e-12 0)
(580 -2.16054e-12 0)
(580 -2.1322e-12 0)
(580 -2.2372e-12 0)
(580 -2.34992e-12 0)
(580 -2.53875e-12 0)
(580 -2.73352e-12 0)
(580 -3.14367e-12 0)
(580 -3.24457e-12 0)
(580 -3.47766e-12 0)
(580 -3.80176e-12 0)
(580 -4.06857e-12 0)
(580 -4.81615e-12 0)
(580 -5.18506e-12 0)
(580 -5.13165e-12 0)
(580 -4.8954e-12 0)
(580 -4.89061e-12 0)
(580 -4.96189e-12 0)
(580 -4.71459e-12 0)
(580 -4.60793e-12 0)
(580 -4.65358e-12 0)
(580 -4.60381e-12 0)
(580 -5.09087e-12 0)
(580 -5.21556e-12 0)
(580 -5.33892e-12 0)
(580 -5.70048e-12 0)
(580 -5.66879e-12 0)
(580 -5.41967e-12 0)
(580 -5.37088e-12 0)
(580 -5.60868e-12 0)
(580 -6.11397e-12 0)
(580 -5.85999e-12 0)
(580 -5.43958e-12 0)
(580 -4.75098e-12 0)
(580 -4.69865e-12 0)
(580 -4.76351e-12 0)
(580 -4.71976e-12 0)
(580 -4.77616e-12 0)
(580 -4.89029e-12 0)
(580 -4.90267e-12 0)
(580 -4.83806e-12 0)
(580 -4.73766e-12 0)
(580 -4.42483e-12 0)
(580 -4.1985e-12 0)
(580 -3.81803e-12 0)
(580 -3.42847e-12 0)
(580 -3.1417e-12 0)
(580 -3.11003e-12 0)
(580 -3.0091e-12 0)
(580 -2.9818e-12 0)
(580 -2.9511e-12 0)
(580 -2.92406e-12 0)
(580 -2.91075e-12 0)
(580 -2.7014e-12 0)
(580 -2.73543e-12 0)
(580 -2.48605e-12 0)
(580 -2.48843e-12 0)
(580 -2.30948e-12 0)
(580 -2.44532e-12 0)
(580 -2.66217e-12 0)
(580 -2.51887e-12 0)
(580 -2.3154e-12 0)
(580 -2.16563e-12 0)
(580 -1.96785e-12 0)
(580 -1.78431e-12 0)
(580 -1.80614e-12 0)
(580 -2.06594e-12 0)
(580 -2.59051e-12 0)
(580 -2.64466e-12 0)
(580 -2.93613e-12 0)
(580 -3.22146e-12 0)
(580 -3.4626e-12 0)
(580 -3.93132e-12 0)
(580 -4.10325e-12 0)
(580 -4.11508e-12 0)
(580 -4.29705e-12 0)
(580 -4.62308e-12 0)
(580 -4.69591e-12 0)
(580 -5.09235e-12 0)
(580 -5.23527e-12 0)
(580 -5.50395e-12 0)
(580 -5.42092e-12 0)
(580 -5.26428e-12 0)
(580 -5.06514e-12 0)
(580 -5.07575e-12 0)
(580 -5.05044e-12 0)
(580 -5.06019e-12 0)
(580 -4.9491e-12 0)
(580 -4.90114e-12 0)
(580 -4.54457e-12 0)
(580 -4.55762e-12 0)
(580 -4.58561e-12 0)
(580 -4.50748e-12 0)
(580 -4.64507e-12 0)
(580 -4.7967e-12 0)
(580 -4.60969e-12 0)
(580 -4.64794e-12 0)
(580 -4.41896e-12 0)
(580 -3.9609e-12 0)
(580 -3.47551e-12 0)
(580 -3.20698e-12 0)
(580 -3.37378e-12 0)
(580 -3.46991e-12 0)
(580 -3.37908e-12 0)
(580 -3.13903e-12 0)
(580 -2.64473e-12 0)
(580 -2.63213e-12 0)
(580 -2.63427e-12 0)
(580 -2.62418e-12 0)
(580 -2.57409e-12 0)
(580 -2.46316e-12 0)
(580 -2.27221e-12 0)
(580 -1.98238e-12 0)
(580 -1.84165e-12 0)
(580 -1.68772e-12 0)
(580 -1.66541e-12 0)
(580 -1.61761e-12 0)
(580 -1.52583e-12 0)
(580 -1.40492e-12 0)
(580 -1.15851e-12 0)
(580 -1.13685e-12 0)
(580 -1.14805e-12 0)
(580 -1.18053e-12 0)
(580 -1.49772e-12 0)
(580 -1.54981e-12 0)
(580 -1.82771e-12 0)
(580 -1.96601e-12 0)
(580 -2.17939e-12 0)
(580 -2.28265e-12 0)
(580 -2.6884e-12 0)
(580 -3.16279e-12 0)
(580 -3.3246e-12 0)
(580 -3.60671e-12 0)
(580 -3.83127e-12 0)
(580 -4.01458e-12 0)
(580 -4.38676e-12 0)
(580 -4.91873e-12 0)
(580 -5.27179e-12 0)
(580 -5.77435e-12 0)
(580 -5.90724e-12 0)
(580 -5.73118e-12 0)
(580 -5.59632e-12 0)
(580 -5.45656e-12 0)
(580 -5.38922e-12 0)
(580 -5.42675e-12 0)
(580 -5.39335e-12 0)
(580 -5.40741e-12 0)
(580 -5.40931e-12 0)
(580 -5.51735e-12 0)
(580 -5.64612e-12 0)
(580 -5.41751e-12 0)
(580 -5.55668e-12 0)
(580 -5.65237e-12 0)
(580 -5.54617e-12 0)
(580 -5.48389e-12 0)
(580 -5.32447e-12 0)
(580 -4.92939e-12 0)
(580 -4.59001e-12 0)
(580 -4.70375e-12 0)
(580 -4.8545e-12 0)
(580 -3.71112e-12 0)
(580 -3.57258e-12 0)
(580 -3.25338e-12 0)
(580 -2.77507e-12 0)
(580 -2.6198e-12 0)
(580 -2.49282e-12 0)
(580 -2.23781e-12 0)
(580 -2.06708e-12 0)
(580 -1.93881e-12 0)
(580 -1.6258e-12 0)
(580 -1.14984e-12 0)
(580 -1.01747e-12 0)
(580 -1.00671e-12 0)
(580 -1.01926e-12 0)
(580 -8.48801e-13 0)
(580 -4.69236e-13 0)
(580 -4.45565e-13 0)
(580 -6.20058e-13 0)
(580 -6.13903e-13 0)
(580 -6.66865e-13 0)
(580 -6.94173e-13 0)
(580 -7.86424e-13 0)
(580 -8.19472e-13 0)
(580 -7.01823e-13 0)
(580 -7.66258e-13 0)
(580 -9.7215e-13 0)
(580 -1.35188e-12 0)
(580 -1.53653e-12 0)
(580 -1.77681e-12 0)
(580 -1.83035e-12 0)
(580 -2.03633e-12 0)
(580 -2.16415e-12 0)
(580 -2.3107e-12 0)
(580 -2.36205e-12 0)
(580 -2.45612e-12 0)
(580 -2.54158e-12 0)
(580 -2.80136e-12 0)
(580 -3.28819e-12 0)
(580 -3.49723e-12 0)
(580 -3.60958e-12 0)
(580 -3.87387e-12 0)
(580 -3.92107e-12 0)
(580 -4.10336e-12 0)
(580 -5.17138e-12 0)
(580 -5.68785e-12 0)
(580 -5.80762e-12 0)
(580 -5.77551e-12 0)
(580 -5.79386e-12 0)
(580 -5.53219e-12 0)
(580 -5.3116e-12 0)
(580 -5.16481e-12 0)
(580 -5.17919e-12 0)
(580 -5.12982e-12 0)
(580 -5.10789e-12 0)
(580 -5.11416e-12 0)
(580 -5.39502e-12 0)
(580 -5.48437e-12 0)
(580 -5.51068e-12 0)
(580 -5.55182e-12 0)
(580 -5.78458e-12 0)
(580 -5.94213e-12 0)
(580 -5.94189e-12 0)
(580 -5.85659e-12 0)
(580 -5.62944e-12 0)
(580 -5.47793e-12 0)
(580 -5.15706e-12 0)
(580 -5.04573e-12 0)
(580 -4.98601e-12 0)
(580 -4.63299e-12 0)
(580 -4.54783e-12 0)
(580 -1.25096e-12 0)
(580 -7.76902e-13 0)
(580 -5.47788e-13 0)
(580 -8.38792e-14 0)
(580 1.61166e-13 0)
(580 3.91429e-13 0)
(580 5.5167e-13 0)
(580 7.93439e-13 0)
(580 6.0195e-13 0)
(580 4.67423e-13 0)
(580 5.31505e-13 0)
(580 5.95843e-13 0)
(580 7.60481e-13 0)
(580 8.30086e-13 0)
(580 6.56499e-13 0)
(580 5.4757e-13 0)
(580 5.74228e-13 0)
(580 4.70213e-13 0)
(580 5.36953e-13 0)
(580 9.08055e-13 0)
(580 8.32684e-13 0)
(580 7.43252e-13 0)
(580 4.90227e-13 0)
(580 3.96943e-13 0)
(580 -2.24142e-13 0)
(580 -6.33654e-13 0)
(580 -1.1196e-12 0)
(580 -1.39803e-12 0)
(580 -1.7582e-12 0)
(580 -2.21689e-12 0)
(580 -2.84431e-12 0)
(580 -3.16027e-12 0)
(580 -3.36571e-12 0)
(580 -3.58749e-12 0)
(580 -3.72904e-12 0)
(580 -3.91804e-12 0)
(580 -4.0496e-12 0)
(580 -4.42419e-12 0)
(580 -4.61531e-12 0)
(580 -4.59437e-12 0)
(580 -4.51664e-12 0)
(580 -4.44019e-12 0)
(580 -4.34493e-12 0)
(580 -4.18575e-12 0)
(580 -4.07174e-12 0)
(580 -3.96107e-12 0)
(580 -3.78953e-12 0)
(580 -3.70418e-12 0)
(580 -3.92439e-12 0)
(580 -3.979e-12 0)
(580 -4.04788e-12 0)
(580 -4.08246e-12 0)
(580 -4.3307e-12 0)
(580 -4.71267e-12 0)
(580 -5.16844e-12 0)
(580 -5.45191e-12 0)
(580 -5.42649e-12 0)
(580 -5.35816e-12 0)
(580 -5.67086e-12 0)
(580 -6.06222e-12 0)
(580 -6.11741e-12 0)
(580 -5.91416e-12 0)
(580 -5.47591e-12 0)
(580 -4.81321e-12 0)
(580 -4.31043e-12 0)
(580 -3.86722e-12 0)
(580 -3.8533e-12 0)
(580 -4.05472e-12 0)
(580 -3.91346e-12 0)
(580 -4.20626e-12 0)
(580 9.20171e-13 0)
(580 7.72447e-13 0)
(580 8.77455e-13 0)
(580 8.70509e-13 0)
(580 7.73089e-13 0)
(580 9.98392e-13 0)
(580 1.01562e-12 0)
(580 9.63552e-13 0)
(580 1.12019e-12 0)
(580 1.13404e-12 0)
(580 1.08081e-12 0)
(580 9.24272e-13 0)
(580 6.09346e-13 0)
(580 4.28345e-13 0)
(580 3.98053e-13 0)
(580 3.55699e-13 0)
(580 5.43882e-13 0)
(580 7.49168e-13 0)
(580 5.84762e-13 0)
(580 3.91618e-13 0)
(580 2.36853e-13 0)
(580 -5.73714e-14 0)
(580 -2.9365e-13 0)
(580 -5.96404e-13 0)
(580 -9.32032e-13 0)
(580 -1.25684e-12 0)
(580 -1.48678e-12 0)
(580 -1.71345e-12 0)