/*--------------------------------*- C++ -*----------------------------------*\
| =========                 |                                                 |
| \\      /  F ield         | OpenFOAM: The Open Source CFD Toolbox           |
|  \\    /   O peration     | Version:  2306                                  |
|   \\  /    A nd           | Website:  www.openfoam.com                      |
|    \\/     M anipulation  |                                                 |
\*---------------------------------------------------------------------------*/
FoamFile
{
    version     2.0;
    format      ascii;
    arch        "LSB;label=32;scalar=64";
    class       volVectorField;
    location    "9e-05";
    object      U;
}
// * * * * * * * * * * * * * * * * * * * * * * * * * * * * * * * * * * * * * //

dimensions      [0 1 -1 0 0 0 0];

internalField   nonuniform List<vector> 
9044
(
(580 -1.01588e-12 0)
(580 -1.14483e-12 0)
(580 -2.51574e-12 0)
(580 -2.62792e-12 0)
(580 -2.49582e-12 0)
(580 -2.50073e-12 0)
(580 -1.32899e-12 0)
(580 -1.32516e-12 0)
(580 4.13399e-13 0)
(580 5.07458e-13 0)
(580 1.28864e-12 0)
(580 1.30501e-12 0)
(580 2.11236e-12 0)
(580 2.10062e-12 0)
(580 1.97522e-12 0)
(580 2.01178e-12 0)
(580 1.81323e-12 0)
(580 1.77783e-12 0)
(580 2.05742e-12 0)
(580 2.06984e-12 0)
(580 1.0491e-12 0)
(580 1.15776e-12 0)
(580 3.27239e-13 0)
(580 3.12959e-13 0)
(580 -1.56189e-13 0)
(580 -2.20755e-13 0)
(580 -7.50529e-13 0)
(580 -4.97926e-13 0)
(580 1.56318e-12 0)
(580 1.56313e-12 0)
(580 2.80013e-12 0)
(580 2.58044e-12 0)
(580 1.04274e-12 0)
(580 9.92575e-13 0)
(580 6.85005e-13 0)
(580 4.21225e-13 0)
(580 3.28862e-13 0)
(580 4.45401e-13 0)
(580 5.78674e-13 0)
(580 8.80596e-13 0)
(580 8.08773e-13 0)
(580 7.2233e-13 0)
(580 6.41332e-13 0)
(580 8.52098e-13 0)
(580 3.28857e-13 0)
(580 -1.977e-13 0)
(580 -3.16204e-13 0)
(580 -1.39983e-13 0)
(580 -4.18218e-13 0)
(580 -4.64492e-13 0)
(580 -3.24999e-13 0)
(580 -2.73847e-13 0)
(580 -5.30449e-14 0)
(580 -4.96005e-14 0)
(580 -2.66102e-13 0)
(580 -6.06787e-13 0)
(580 -8.85308e-13 0)
(580 -1.0476e-12 0)
(580 -1.30872e-12 0)
(580 -1.77888e-12 0)
(580 -2.15268e-12 0)
(580 -2.04313e-12 0)
(580 -2.12697e-12 0)
(580 -2.10799e-12 0)
(580 -2.0787e-12 0)
(580 -2.12887e-12 0)
(580 -1.68568e-12 0)
(580 -1.21905e-12 0)
(580 -1.23016e-12 0)
(580 -1.34092e-12 0)
(580 -1.41261e-12 0)
(580 -1.49228e-12 0)
(580 -1.27522e-12 0)
(580 -1.05138e-12 0)
(580 -1.23235e-12 0)
(580 -2.17084e-12 0)
(580 -2.6546e-12 0)
(580 -3.48825e-12 0)
(580 -4.41814e-12 0)
(580 -4.49156e-12 0)
(580 -4.73893e-12 0)
(580 -5.15853e-12 0)
(580 -5.39354e-12 0)
(580 -5.3355e-12 0)
(580 -5.43006e-12 0)
(580 -5.82863e-12 0)
(580 -5.83469e-12 0)
(580 -5.75105e-12 0)
(580 -5.7458e-12 0)
(580 -5.70242e-12 0)
(580 -5.60605e-12 0)
(580 -5.57834e-12 0)
(580 -5.51562e-12 0)
(580 -5.16933e-12 0)
(580 -4.42197e-12 0)
(580 -3.66792e-12 0)
(580 -3.07402e-12 0)
(580 -2.51408e-12 0)
(580 -1.68084e-12 0)
(580 -6.27337e-13 0)
(580 -2.71426e-13 0)
(580 4.00643e-15 0)
(580 -1.97285e-13 0)
(580 -6.62429e-13 0)
(580 -3.22016e-13 0)
(580 3.08442e-13 0)
(580 3.6951e-13 0)
(580 3.53819e-13 0)
(580 5.48578e-13 0)
(580 7.18336e-13 0)
(580 7.86341e-13 0)
(580 1.08442e-12 0)
(580 1.49618e-12 0)
(580 1.86147e-12 0)
(580 -1.01959e-12 0)
(580 -1.25191e-12 0)
(580 -1.34618e-12 0)
(580 -1.52447e-12 0)
(580 -1.62452e-12 0)
(580 -1.40037e-12 0)
(580 -1.16485e-12 0)
(580 -1.38615e-12 0)
(580 -1.48606e-12 0)
(580 -5.21512e-13 0)
(580 -6.39891e-13 0)
(580 -1.43901e-12 0)
(580 -1.57178e-12 0)
(580 -1.90933e-12 0)
(580 -1.90342e-12 0)
(580 -1.57631e-12 0)
(580 -1.61218e-12 0)
(580 -1.44256e-12 0)
(580 -1.19767e-12 0)
(580 -1.02889e-12 0)
(580 -1.0838e-12 0)
(580 -1.18273e-12 0)
(580 -1.11103e-12 0)
(580 -9.76898e-13 0)
(580 -1.46724e-12 0)
(580 -1.74559e-12 0)
(580 -1.43444e-12 0)
(580 -1.04262e-12 0)
(580 -8.56263e-13 0)
(580 -7.79083e-13 0)
(580 -9.04604e-13 0)
(580 -1.10765e-12 0)
(580 -1.64401e-12 0)
(580 -3.07091e-12 0)
(580 -4.15775e-12 0)
(580 -5.16324e-12 0)
(580 -6.22899e-12 0)
(580 -6.53505e-12 0)
(580 -6.92371e-12 0)
(580 -7.04556e-12 0)
(580 -7.11382e-12 0)
(580 -7.28843e-12 0)
(580 -7.33299e-12 0)
(580 -7.29558e-12 0)
(580 -6.72512e-12 0)
(580 -6.48318e-12 0)
(580 -6.39137e-12 0)
(580 -5.93979e-12 0)
(580 -5.74913e-12 0)
(580 -5.7142e-12 0)
(580 -5.66322e-12 0)
(580 -5.19889e-12 0)
(580 -4.79239e-12 0)
(580 -4.47157e-12 0)
(580 -3.95401e-12 0)
(580 -3.71528e-12 0)
(580 -3.41677e-12 0)
(580 -2.84073e-12 0)
(580 -2.64772e-12 0)
(580 -1.65451e-12 0)
(580 -1.01237e-12 0)
(580 -9.6641e-13 0)
(580 -1.08268e-12 0)
(580 -1.25422e-12 0)
(580 -1.34922e-12 0)
(580 -1.39273e-12 0)
(580 -1.16414e-12 0)
(580 -5.62134e-13 0)
(580 -2.61005e-13 0)
(580 4.25927e-13 0)
(580 -1.30898e-12 0)
(580 -1.68718e-12 0)
(580 -1.89036e-12 0)
(580 -2.19021e-12 0)
(580 -2.3091e-12 0)
(580 -2.52758e-12 0)
(580 -2.29874e-12 0)
(580 -2.01689e-12 0)
(580 -2.29e-12 0)
(580 -1.68952e-12 0)
(580 -1.60175e-12 0)
(580 -1.79153e-12 0)
(580 -2.0783e-12 0)
(580 -2.48311e-12 0)
(580 -2.93494e-12 0)
(580 -2.84167e-12 0)
(580 -2.24818e-12 0)
(580 -1.56028e-12 0)
(580 -7.92078e-13 0)
(580 -5.64104e-13 0)
(580 -7.12911e-13 0)
(580 -5.58463e-13 0)
(580 -7.59306e-13 0)
(580 -1.31424e-12 0)
(580 -1.92719e-12 0)
(580 -2.19435e-12 0)
(580 -2.32449e-12 0)
(580 -2.19413e-12 0)
(580 -2.00482e-12 0)
(580 -2.20781e-12 0)
(580 -2.6183e-12 0)
(580 -2.51526e-12 0)
(580 -2.32976e-12 0)
(580 -2.44754e-12 0)
(580 -2.8494e-12 0)
(580 -3.23944e-12 0)
(580 -4.16752e-12 0)
(580 -5.09229e-12 0)
(580 -5.70091e-12 0)
(580 -7.17698e-12 0)
(580 -7.86399e-12 0)
(580 -8.05188e-12 0)
(580 -7.8993e-12 0)
(580 -7.54862e-12 0)
(580 -6.80577e-12 0)
(580 -6.24987e-12 0)
(580 -6.08959e-12 0)
(580 -6.01735e-12 0)
(580 -5.90113e-12 0)
(580 -5.59885e-12 0)
(580 -5.61165e-12 0)
(580 -6.50875e-12 0)
(580 -6.94063e-12 0)
(580 -6.62935e-12 0)
(580 -5.82369e-12 0)
(580 -5.09772e-12 0)
(580 -4.81873e-12 0)
(580 -4.85481e-12 0)
(580 -4.29598e-12 0)
(580 -4.35004e-12 0)
(580 -4.26939e-12 0)
(580 -3.51359e-12 0)
(580 -3.06579e-12 0)
(580 -2.41301e-12 0)
(580 -2.05836e-12 0)
(580 -1.53026e-12 0)
(580 -1.67704e-12 0)
(580 -2.15737e-12 0)
(580 -2.26279e-12 0)
(580 -1.87655e-12 0)
(580 -1.9234e-12 0)
(580 -2.7862e-12 0)
(580 -3.0792e-12 0)
(580 -3.02981e-12 0)
(580 -2.9739e-12 0)
(580 -2.93063e-12 0)
(580 -3.10022e-12 0)
(580 -3.55436e-12 0)
(580 -3.98189e-12 0)
(580 -3.76543e-12 0)
(580 -3.40322e-12 0)
(580 -2.44535e-12 0)
(580 -2.51879e-12 0)
(580 -2.4521e-12 0)
(580 -2.88265e-12 0)
(580 -3.42641e-12 0)
(580 -3.24891e-12 0)
(580 -3.02215e-12 0)
(580 -2.72479e-12 0)
(580 -2.31283e-12 0)
(580 -1.26955e-12 0)
(580 -1.17275e-12 0)
(580 -1.43882e-12 0)
(580 -1.66246e-12 0)
(580 -2.37444e-12 0)
(580 -2.75149e-12 0)
(580 -2.87564e-12 0)
(580 -2.95143e-12 0)
(580 -3.07133e-12 0)
(580 -3.13219e-12 0)
(580 -3.74194e-12 0)
(580 -3.94878e-12 0)
(580 -3.99594e-12 0)
(580 -3.64355e-12 0)
(580 -3.02144e-12 0)
(580 -2.99098e-12 0)
(580 -3.00177e-12 0)
(580 -3.11822e-12 0)
(580 -3.74112e-12 0)
(580 -3.89956e-12 0)
(580 -4.24363e-12 0)
(580 -4.78138e-12 0)
(580 -5.1881e-12 0)
(580 -5.26878e-12 0)
(580 -5.88497e-12 0)
(580 -6.01797e-12 0)
(580 -6.07657e-12 0)
(580 -6.42275e-12 0)
(580 -6.80446e-12 0)
(580 -6.42916e-12 0)
(580 -6.18212e-12 0)
(580 -5.45858e-12 0)
(580 -5.00621e-12 0)
(580 -5.32718e-12 0)
(580 -5.66011e-12 0)
(580 -5.80418e-12 0)
(580 -5.76239e-12 0)
(580 -5.84775e-12 0)
(580 -6.56437e-12 0)
(580 -6.56631e-12 0)
(580 -6.40762e-12 0)
(580 -6.22846e-12 0)
(580 -6.11338e-12 0)
(580 -5.61651e-12 0)
(580 -5.06597e-12 0)
(580 -5.04857e-12 0)
(580 -4.80883e-12 0)
(580 -4.69294e-12 0)
(580 -4.39551e-12 0)
(580 -3.98282e-12 0)
(580 -2.568e-12 0)
(580 -2.36484e-12 0)
(580 -2.24705e-12 0)
(580 -2.33333e-12 0)
(580 -2.94053e-12 0)
(580 -3.46172e-12 0)
(580 -4.41424e-12 0)
(580 -5.25357e-12 0)
(580 -5.54359e-12 0)
(580 -5.48085e-12 0)
(580 -5.33724e-12 0)
(580 -4.74032e-12 0)
(580 -3.91596e-12 0)
(580 -3.09467e-12 0)
(580 -2.51611e-12 0)
(580 -2.37676e-12 0)
(580 -2.41164e-12 0)
(580 -2.56095e-12 0)
(580 -2.61963e-12 0)
(580 -2.49712e-12 0)
(580 -2.28921e-12 0)
(580 -2.19996e-12 0)
(580 -1.59064e-12 0)
(580 -1.59994e-12 0)
(580 -2.06438e-12 0)
(580 -2.3637e-12 0)
(580 -3.43111e-12 0)
(580 -4.10887e-12 0)
(580 -4.46837e-12 0)
(580 -4.88935e-12 0)
(580 -4.82509e-12 0)
(580 -4.508e-12 0)
(580 -4.34765e-12 0)
(580 -3.96094e-12 0)
(580 -3.19528e-12 0)
(580 -3.0767e-12 0)
(580 -3.18225e-12 0)
(580 -3.26398e-12 0)
(580 -3.32683e-12 0)
(580 -3.45313e-12 0)
(580 -4.05321e-12 0)
(580 -4.40482e-12 0)
(580 -5.34994e-12 0)
(580 -5.58443e-12 0)
(580 -5.95422e-12 0)
(580 -6.83992e-12 0)
(580 -6.5957e-12 0)
(580 -6.24265e-12 0)
(580 -6.25626e-12 0)
(580 -6.64851e-12 0)
(580 -6.3544e-12 0)
(580 -5.32848e-12 0)
(580 -5.0265e-12 0)
(580 -4.90459e-12 0)
(580 -4.89393e-12 0)
(580 -5.07367e-12 0)
(580 -5.63202e-12 0)
(580 -6.3837e-12 0)
(580 -6.60998e-12 0)
(580 -6.49821e-12 0)
(580 -6.60965e-12 0)
(580 -6.76346e-12 0)
(580 -6.94968e-12 0)
(580 -7.0275e-12 0)
(580 -6.75047e-12 0)
(580 -6.37827e-12 0)
(580 -6.07327e-12 0)
(580 -5.44444e-12 0)
(580 -4.80024e-12 0)
(580 -4.96523e-12 0)
(580 -3.40762e-12 0)
(580 -2.81206e-12 0)
(580 -2.40539e-12 0)
(580 -2.52742e-12 0)
(580 -3.11591e-12 0)
(580 -3.46212e-12 0)
(580 -3.86736e-12 0)
(580 -4.44899e-12 0)
(580 -5.09682e-12 0)
(580 -5.51374e-12 0)
(580 -5.16132e-12 0)
(580 -4.70057e-12 0)
(580 -4.16462e-12 0)
(580 -3.7378e-12 0)
(580 -2.73488e-12 0)
(580 -2.44967e-12 0)
(580 -2.20501e-12 0)
(580 -2.3815e-12 0)
(580 -2.48027e-12 0)
(580 -2.80462e-12 0)
(580 -3.06037e-12 0)
(580 -3.16882e-12 0)
(580 -2.51849e-12 0)
(580 -1.58361e-12 0)
(580 -1.6724e-12 0)
(580 -2.27089e-12 0)
(580 -2.81285e-12 0)
(580 -3.58493e-12 0)
(580 -5.15943e-12 0)
(580 -5.6775e-12 0)
(580 -5.25671e-12 0)
(580 -5.26023e-12 0)
(580 -5.33165e-12 0)
(580 -5.63899e-12 0)
(580 -5.81415e-12 0)
(580 -5.41337e-12 0)
(580 -4.36791e-12 0)
(580 -4.06256e-12 0)
(580 -3.61743e-12 0)
(580 -3.56672e-12 0)
(580 -3.77569e-12 0)
(580 -3.93934e-12 0)
(580 -4.07555e-12 0)
(580 -4.06489e-12 0)
(580 -4.17558e-12 0)
(580 -4.79296e-12 0)
(580 -4.95603e-12 0)
(580 -4.82611e-12 0)
(580 -4.15487e-12 0)
(580 -4.28047e-12 0)
(580 -4.45695e-12 0)
(580 -4.44928e-12 0)
(580 -4.45222e-12 0)
(580 -4.29988e-12 0)
(580 -4.25665e-12 0)
(580 -4.17105e-12 0)
(580 -4.69625e-12 0)
(580 -4.87991e-12 0)
(580 -4.72934e-12 0)
(580 -4.81885e-12 0)
(580 -5.25148e-12 0)
(580 -5.85304e-12 0)
(580 -6.02709e-12 0)
(580 -6.05399e-12 0)
(580 -5.99902e-12 0)
(580 -6.24578e-12 0)
(580 -6.70585e-12 0)
(580 -6.62762e-12 0)
(580 -6.2063e-12 0)
(580 -6.17111e-12 0)
(580 -4.79535e-12 0)
(580 -4.59309e-12 0)
(580 -4.56055e-12 0)
(580 -5.02031e-12 0)
(580 -5.04696e-12 0)
(580 -4.60435e-12 0)
(580 -4.24233e-12 0)
(580 -4.04894e-12 0)
(580 -4.04237e-12 0)
(580 -4.12773e-12 0)
(580 -4.3055e-12 0)
(580 -4.21916e-12 0)
(580 -3.97188e-12 0)
(580 -4.0431e-12 0)
(580 -3.72799e-12 0)
(580 -2.44483e-12 0)
(580 -2.22359e-12 0)
(580 -2.54724e-12 0)
(580 -3.00082e-12 0)
(580 -3.35448e-12 0)
(580 -3.58343e-12 0)
(580 -4.04534e-12 0)
(580 -4.24171e-12 0)
(580 -3.8814e-12 0)
(580 -3.67595e-12 0)
(580 -3.66157e-12 0)
(580 -3.55822e-12 0)
(580 -3.77291e-12 0)
(580 -4.53921e-12 0)
(580 -4.54158e-12 0)
(580 -5.34034e-12 0)
(580 -5.6269e-12 0)
(580 -6.14416e-12 0)
(580 -6.30534e-12 0)
(580 -6.13725e-12 0)
(580 -5.60085e-12 0)
(580 -4.60102e-12 0)
(580 -3.72539e-12 0)
(580 -3.5654e-12 0)
(580 -3.51628e-12 0)
(580 -3.48266e-12 0)
(580 -3.27252e-12 0)
(580 -2.66489e-12 0)
(580 -2.36066e-12 0)
(580 -2.65075e-12 0)
(580 -2.62635e-12 0)
(580 -2.6e-12 0)
(580 -2.5843e-12 0)
(580 -2.35928e-12 0)
(580 -2.65413e-12 0)
(580 -3.87323e-12 0)
(580 -4.11027e-12 0)
(580 -4.36178e-12 0)
(580 -4.61419e-12 0)
(580 -5.05667e-12 0)
(580 -5.18549e-12 0)
(580 -5.22934e-12 0)
(580 -5.30699e-12 0)
(580 -5.44741e-12 0)
(580 -5.65986e-12 0)
(580 -5.67472e-12 0)
(580 -5.53654e-12 0)
(580 -5.20062e-12 0)
(580 -4.79304e-12 0)
(580 -4.83906e-12 0)
(580 -5.28144e-12 0)
(580 -5.49627e-12 0)
(580 -5.86619e-12 0)
(580 -6.42475e-12 0)
(580 -6.27627e-12 0)
(580 -4.78312e-12 0)
(580 -5.18571e-12 0)
(580 -5.53717e-12 0)
(580 -5.37218e-12 0)
(580 -5.02206e-12 0)
(580 -4.37862e-12 0)
(580 -3.98575e-12 0)
(580 -3.65334e-12 0)
(580 -3.50908e-12 0)
(580 -3.18394e-12 0)
(580 -3.49817e-12 0)
(580 -3.66286e-12 0)
(580 -3.81699e-12 0)
(580 -3.85473e-12 0)
(580 -3.84552e-12 0)
(580 -3.83981e-12 0)
(580 -4.03637e-12 0)
(580 -4.35024e-12 0)
(580 -4.40173e-12 0)
(580 -4.52452e-12 0)
(580 -4.58357e-12 0)
(580 -4.77898e-12 0)
(580 -5.19741e-12 0)
(580 -5.37386e-12 0)
(580 -5.40953e-12 0)
(580 -4.72459e-12 0)
(580 -4.541e-12 0)
(580 -4.49319e-12 0)
(580 -4.44996e-12 0)
(580 -4.24259e-12 0)
(580 -4.78874e-12 0)
(580 -5.65928e-12 0)
(580 -6.01701e-12 0)
(580 -6.55194e-12 0)
(580 -6.41264e-12 0)
(580 -5.67946e-12 0)
(580 -5.50704e-12 0)
(580 -4.97491e-12 0)
(580 -4.08167e-12 0)
(580 -3.72401e-12 0)
(580 -2.83303e-12 0)
(580 -2.61501e-12 0)
(580 -1.99717e-12 0)
(580 -1.91689e-12 0)
(580 -1.64625e-12 0)
(580 -1.56204e-12 0)
(580 -1.67085e-12 0)
(580 -1.91761e-12 0)
(580 -2.07602e-12 0)
(580 -2.63706e-12 0)
(580 -3.56263e-12 0)
(580 -3.66389e-12 0)
(580 -3.77294e-12 0)
(580 -4.30211e-12 0)
(580 -5.10434e-12 0)
(580 -5.62199e-12 0)
(580 -5.66949e-12 0)
(580 -5.56642e-12 0)
(580 -5.7918e-12 0)
(580 -5.86103e-12 0)
(580 -5.69577e-12 0)
(580 -5.33536e-12 0)
(580 -4.95019e-12 0)
(580 -4.88572e-12 0)
(580 -4.70391e-12 0)
(580 -4.46037e-12 0)
(580 -4.23326e-12 0)
(580 -4.65935e-12 0)
(580 -5.59505e-12 0)
(580 -6.18613e-12 0)
(580 -5.1959e-12 0)
(580 -5.45334e-12 0)
(580 -5.47321e-12 0)
(580 -5.49745e-12 0)
(580 -5.56865e-12 0)
(580 -5.55925e-12 0)
(580 -5.32058e-12 0)
(580 -4.75706e-12 0)
(580 -4.11749e-12 0)
(580 -3.95238e-12 0)
(580 -3.98432e-12 0)
(580 -4.35943e-12 0)
(580 -4.60436e-12 0)
(580 -4.56605e-12 0)
(580 -4.36834e-12 0)
(580 -4.49277e-12 0)
(580 -5.28624e-12 0)
(580 -5.39309e-12 0)
(580 -5.62908e-12 0)
(580 -5.74774e-12 0)
(580 -5.80198e-12 0)
(580 -5.97648e-12 0)
(580 -6.22737e-12 0)
(580 -6.43776e-12 0)
(580 -6.26427e-12 0)
(580 -6.45309e-12 0)
(580 -5.5989e-12 0)
(580 -5.29003e-12 0)
(580 -4.76731e-12 0)
(580 -4.5292e-12 0)
(580 -4.34206e-12 0)
(580 -4.45346e-12 0)
(580 -4.79657e-12 0)
(580 -3.83834e-12 0)
(580 -3.4836e-12 0)
(580 -3.60502e-12 0)
(580 -3.84491e-12 0)
(580 -3.49916e-12 0)
(580 -3.36872e-12 0)
(580 -3.0178e-12 0)
(580 -2.61573e-12 0)
(580 -2.28513e-12 0)
(580 -2.17491e-12 0)
(580 -2.00754e-12 0)
(580 -1.81336e-12 0)
(580 -1.59515e-12 0)
(580 -1.63381e-12 0)
(580 -2.00954e-12 0)
(580 -2.51588e-12 0)
(580 -2.57205e-12 0)
(580 -2.7386e-12 0)
(580 -2.56982e-12 0)
(580 -2.65996e-12 0)
(580 -3.12996e-12 0)
(580 -3.72574e-12 0)
(580 -4.20491e-12 0)
(580 -4.54848e-12 0)
(580 -4.72533e-12 0)
(580 -4.99829e-12 0)
(580 -5.01218e-12 0)
(580 -4.98857e-12 0)
(580 -4.92672e-12 0)
(580 -4.99229e-12 0)
(580 -5.16874e-12 0)
(580 -5.01902e-12 0)
(580 -4.79111e-12 0)
(580 -4.36564e-12 0)
(580 -4.27071e-12 0)
(580 -4.17963e-12 0)
(580 -4.25527e-12 0)
(580 -3.63532e-12 0)
(580 -3.56935e-12 0)
(580 -3.32472e-12 0)
(580 -3.18254e-12 0)
(580 -3.26899e-12 0)
(580 -3.58985e-12 0)
(580 -3.66003e-12 0)
(580 -3.78762e-12 0)
(580 -3.66468e-12 0)
(580 -4.15469e-12 0)
(580 -4.17403e-12 0)
(580 -4.20963e-12 0)
(580 -4.34515e-12 0)
(580 -4.74796e-12 0)
(580 -4.93096e-12 0)
(580 -5.25124e-12 0)
(580 -5.30314e-12 0)
(580 -5.31815e-12 0)
(580 -5.38806e-12 0)
(580 -5.39506e-12 0)
(580 -5.42644e-12 0)
(580 -5.44979e-12 0)
(580 -5.42122e-12 0)
(580 -5.59638e-12 0)
(580 -5.58113e-12 0)
(580 -5.26218e-12 0)
(580 -5.03318e-12 0)
(580 -4.79475e-12 0)
(580 -4.25539e-12 0)
(580 -3.74588e-12 0)
(580 -3.50341e-12 0)
(580 -3.05238e-12 0)
(580 -3.08379e-12 0)
(580 -3.025e-12 0)
(580 -2.39454e-12 0)
(580 -2.35911e-12 0)
(580 -2.36607e-12 0)
(580 -2.27396e-12 0)
(580 -2.25121e-12 0)
(580 -2.35456e-12 0)
(580 -2.12526e-12 0)
(580 -1.68176e-12 0)
(580 -1.49217e-12 0)
(580 -1.3725e-12 0)
(580 -1.18416e-12 0)
(580 -1.1532e-12 0)
(580 -1.22167e-12 0)
(580 -1.28557e-12 0)
(580 -1.41658e-12 0)
(580 -1.42933e-12 0)
(580 -1.0544e-12 0)
(580 -1.52247e-12 0)
(580 -2.03602e-12 0)
(580 -2.59262e-12 0)
(580 -3.28214e-12 0)
(580 -3.27468e-12 0)
(580 -3.52267e-12 0)
(580 -3.8109e-12 0)
(580 -3.92876e-12 0)
(580 -4.01582e-12 0)
(580 -4.39862e-12 0)
(580 -4.65773e-12 0)
(580 -5.15679e-12 0)
(580 -5.37697e-12 0)
(580 -5.31564e-12 0)
(580 -4.88431e-12 0)
(580 -4.71591e-12 0)
(580 -4.34491e-12 0)
(580 -3.97569e-12 0)
(580 -3.86092e-12 0)
(580 -9.02711e-13 0)
(580 -1.13049e-12 0)
(580 -1.33647e-12 0)
(580 -1.67758e-12 0)
(580 -2.154e-12 0)
(580 -2.4101e-12 0)
(580 -2.74975e-12 0)
(580 -2.95907e-12 0)
(580 -3.48202e-12 0)
(580 -3.65289e-12 0)
(580 -3.86048e-12 0)
(580 -4.05034e-12 0)
(580 -4.26336e-12 0)
(580 -4.7067e-12 0)
(580 -5.31999e-12 0)
(580 -5.91191e-12 0)
(580 -6.18411e-12 0)
(580 -6.14196e-12 0)
(580 -6.04325e-12 0)
(580 -6.11358e-12 0)
(580 -6.03307e-12 0)
(580 -5.80003e-12 0)
(580 -5.16044e-12 0)
(580 -4.94435e-12 0)
(580 -4.35517e-12 0)
(580 -3.75634e-12 0)
(580 -2.7791e-12 0)
(580 -2.28157e-12 0)
(580 -2.17119e-12 0)
(580 -2.21762e-12 0)
(580 -2.09179e-12 0)
(580 -1.73524e-12 0)
(580 -1.17693e-12 0)
(580 -1.09233e-12 0)
(580 -1.15479e-12 0)
(580 -1.21826e-12 0)
(580 -1.28659e-12 0)
(580 -1.40256e-12 0)
(580 -1.33423e-12 0)
(580 -1.32656e-12 0)
(580 -1.19343e-12 0)
(580 -1.16664e-12 0)
(580 -9.29165e-13 0)
(580 -6.4831e-13 0)
(580 -6.68907e-13 0)
(580 -6.75517e-13 0)
(580 -5.86023e-13 0)
(580 -5.13827e-13 0)
(580 -5.51501e-13 0)
(580 -6.66593e-13 0)
(580 -8.43529e-13 0)
(580 -9.57172e-13 0)
(580 -1.07248e-12 0)
(580 -1.45828e-12 0)
(580 -1.61052e-12 0)
(580 -1.9548e-12 0)
(580 -2.52282e-12 0)
(580 -2.92071e-12 0)
(580 -3.01885e-12 0)
(580 -2.89853e-12 0)
(580 -3.04203e-12 0)
(580 -3.55569e-12 0)
(580 -3.79314e-12 0)
(580 -3.8397e-12 0)
(580 -4.33539e-12 0)
(580 -4.39645e-12 0)
(580 -4.60659e-12 0)
(580 -4.58058e-12 0)
(580 -4.21541e-12 0)
(580 -4.10752e-12 0)
(580 -2.5591e-12 0)
(580 -2.75068e-12 0)
(580 -3.09996e-12 0)
(580 -3.62866e-12 0)
(580 -3.8163e-12 0)
(580 -4.16405e-12 0)
(580 -4.73049e-12 0)
(580 -5.13259e-12 0)
(580 -5.57939e-12 0)
(580 -5.75556e-12 0)
(580 -6.34806e-12 0)
(580 -6.77982e-12 0)
(580 -6.86875e-12 0)
(580 -7.01065e-12 0)
(580 -6.6416e-12 0)
(580 -6.07866e-12 0)
(580 -5.49859e-12 0)
(580 -4.52584e-12 0)
(580 -4.24033e-12 0)
(580 -4.26597e-12 0)
(580 -4.52979e-12 0)
(580 -4.11781e-12 0)
(580 -3.69202e-12 0)
(580 -3.44008e-12 0)
(580 -3.39243e-12 0)
(580 -3.41581e-12 0)
(580 -3.60319e-12 0)
(580 -3.47427e-12 0)
(580 -3.24261e-12 0)
(580 -3.03089e-12 0)
(580 -2.75048e-12 0)
(580 -2.3366e-12 0)
(580 -2.18627e-12 0)
(580 -1.88414e-12 0)
(580 -1.9674e-12 0)
(580 -2.16681e-12 0)
(580 -2.21075e-12 0)
(580 -2.17874e-12 0)
(580 -2.01643e-12 0)
(580 -1.81041e-12 0)
(580 -1.87889e-12 0)
(580 -1.83889e-12 0)
(580 -1.92795e-12 0)
(580 -1.81156e-12 0)
(580 -1.52243e-12 0)
(580 -1.48513e-12 0)
(580 -1.34302e-12 0)
(580 -9.92471e-13 0)
(580 -7.83432e-13 0)
(580 -6.78827e-13 0)
(580 -9.65873e-13 0)
(580 -1.01742e-12 0)
(580 -1.08416e-12 0)
(580 -1.29633e-12 0)
(580 -1.3919e-12 0)
(580 -1.64072e-12 0)
(580 -1.81719e-12 0)
(580 -1.87856e-12 0)
(580 -1.91087e-12 0)
(580 -2.02946e-12 0)
(580 -2.13338e-12 0)
(580 -2.38772e-12 0)
(580 -2.51427e-12 0)
(580 -2.50585e-12 0)
(580 -2.60811e-12 0)
(580 -2.57594e-12 0)
(580 -3.02328e-12 0)
(580 -3.4336e-12 0)
(580 -3.41588e-12 0)
(580 -3.11209e-12 0)
(580 -4.96946e-12 0)
(580 -5.30984e-12 0)
(580 -6.03437e-12 0)
(580 -5.91595e-12 0)
(580 -6.24048e-12 0)
(580 -6.334e-12 0)
(580 -6.05791e-12 0)
(580 -6.37733e-12 0)
(580 -6.10766e-12 0)
(580 -6.12232e-12 0)
(580 -5.89665e-12 0)
(580 -5.39441e-12 0)
(580 -5.47908e-12 0)
(580 -4.82191e-12 0)
(580 -4.61559e-12 0)
(580 -4.31827e-12 0)
(580 -3.71623e-12 0)
(580 -2.87417e-12 0)
(580 -2.39587e-12 0)
(580 -2.28277e-12 0)
(580 -2.05843e-12 0)
(580 -2.06152e-12 0)
(580 -1.83362e-12 0)
(580 -1.92176e-12 0)
(580 -1.9539e-12 0)
(580 -1.92229e-12 0)
(580 -1.90195e-12 0)
(580 -1.99956e-12 0)
(580 -2.1499e-12 0)
(580 -1.93211e-12 0)
(580 -1.96548e-12 0)
(580 -2.10605e-12 0)
(580 -2.54786e-12 0)
(580 -2.83809e-12 0)
(580 -3.22912e-12 0)
(580 -3.50879e-12 0)
(580 -3.81855e-12 0)
(580 -3.96134e-12 0)
(580 -4.19531e-12 0)
(580 -4.34602e-12 0)
(580 -4.50358e-12 0)
(580 -4.68304e-12 0)
(580 -4.99367e-12 0)
(580 -5.07107e-12 0)
(580 -5.07942e-12 0)
(580 -5.11642e-12 0)
(580 -4.82945e-12 0)
(580 -4.5501e-12 0)
(580 -4.27595e-12 0)
(580 -4.03801e-12 0)
(580 -3.67857e-12 0)
(580 -3.13381e-12 0)
(580 -2.73692e-12 0)
(580 -2.55469e-12 0)
(580 -2.48173e-12 0)
(580 -2.28573e-12 0)
(580 -1.92016e-12 0)
(580 -1.86404e-12 0)
(580 -1.96198e-12 0)
(580 -2.15067e-12 0)
(580 -2.2823e-12 0)
(580 -2.26771e-12 0)
(580 -2.16061e-12 0)
(580 -2.0868e-12 0)
(580 -1.97687e-12 0)
(580 -2.10668e-12 0)
(580 -2.40361e-12 0)
(580 -2.61593e-12 0)
(580 -2.65279e-12 0)
(580 -2.53696e-12 0)
(580 -5.05319e-12 0)
(580 -5.09197e-12 0)
(580 -5.06075e-12 0)
(580 -4.69252e-12 0)
(580 -4.65364e-12 0)
(580 -4.2458e-12 0)
(580 -3.71421e-12 0)
(580 -3.76787e-12 0)
(580 -3.90847e-12 0)
(580 -3.54288e-12 0)
(580 -3.25699e-12 0)
(580 -2.99946e-12 0)
(580 -2.6285e-12 0)
(580 -2.48492e-12 0)
(580 -2.39852e-12 0)
(580 -2.30459e-12 0)
(580 -2.31544e-12 0)
(580 -2.37725e-12 0)
(580 -2.20202e-12 0)
(580 -1.95882e-12 0)
(580 -1.71152e-12 0)
(580 -1.48029e-12 0)
(580 -1.498e-12 0)
(580 -1.45913e-12 0)
(580 -1.50579e-12 0)
(580 -1.58756e-12 0)
(580 -1.60064e-12 0)
(580 -1.66295e-12 0)
(580 -1.81488e-12 0)
(580 -1.86723e-12 0)
(580 -1.93127e-12 0)
(580 -1.96749e-12 0)
(580 -2.13648e-12 0)
(580 -2.19757e-12 0)
(580 -2.15991e-12 0)
(580 -2.55554e-12 0)
(580 -2.66439e-12 0)
(580 -2.98085e-12 0)
(580 -3.15851e-12 0)
(580 -3.63104e-12 0)
(580 -3.54312e-12 0)
(580 -3.46138e-12 0)
(580 -3.74539e-12 0)
(580 -4.00584e-12 0)
(580 -3.92995e-12 0)
(580 -3.98402e-12 0)
(580 -4.31902e-12 0)
(580 -4.42533e-12 0)
(580 -4.33676e-12 0)
(580 -4.09388e-12 0)
(580 -3.89762e-12 0)
(580 -3.72285e-12 0)
(580 -3.57662e-12 0)
(580 -3.3299e-12 0)
(580 -3.26199e-12 0)
(580 -3.41081e-12 0)
(580 -3.51605e-12 0)
(580 -3.52741e-12 0)
(580 -3.62582e-12 0)
(580 -3.62065e-12 0)
(580 -3.63991e-12 0)
(580 -3.39547e-12 0)
(580 -3.15713e-12 0)
(580 -3.12157e-12 0)
(580 -3.05371e-12 0)
(580 -2.96903e-12 0)
(580 -3.33416e-12 0)
(580 -3.60518e-12 0)
(580 -3.81546e-12 0)
(580 -4.34001e-12 0)
(580 -4.92251e-12 0)
(580 -4.54242e-12 0)
(580 -3.92112e-12 0)
(580 -3.56842e-12 0)
(580 -3.17537e-12 0)
(580 -2.92986e-12 0)
(580 -2.68466e-12 0)
(580 -2.06358e-12 0)
(580 -1.69498e-12 0)
(580 -1.01865e-12 0)
(580 -7.3934e-13 0)
(580 -3.8417e-13 0)
(580 -1.20392e-13 0)
(580 9.30442e-14 0)
(580 2.1671e-13 0)
(580 6.22155e-14 0)
(580 -1.72843e-13 0)
(580 -4.87095e-13 0)
(580 -8.37325e-13 0)
(580 -8.93934e-13 0)
(580 -1.03043e-12 0)
(580 -1.11764e-12 0)
(580 -1.30188e-12 0)
(580 -1.52495e-12 0)
(580 -1.66059e-12 0)
(580 -2.01214e-12 0)
(580 -2.18846e-12 0)
(580 -2.44123e-12 0)
(580 -2.46527e-12 0)
(580 -2.48548e-12 0)
(580 -2.67513e-12 0)
(580 -2.5814e-12 0)
(580 -2.46147e-12 0)
(580 -2.47298e-12 0)
(580 -2.59607e-12 0)
(580 -2.81432e-12 0)
(580 -2.91471e-12 0)
(580 -3.02956e-12 0)
(580 -2.83902e-12 0)
(580 -2.77644e-12 0)
(580 -3.0124e-12 0)
(580 -3.03797e-12 0)
(580 -2.93623e-12 0)
(580 -2.83549e-12 0)
(580 -2.73288e-12 0)
(580 -2.64603e-12 0)
(580 -2.54329e-12 0)
(580 -2.47054e-12 0)
(580 -2.7054e-12 0)
(580 -2.74505e-12 0)
(580 -2.98665e-12 0)
(580 -3.27837e-12 0)
(580 -3.24082e-12 0)
(580 -2.84335e-12 0)
(580 -2.55403e-12 0)
(580 -2.70488e-12 0)
(580 -3.77665e-12 0)
(580 -4.1415e-12 0)
(580 -4.24008e-12 0)
(580 -4.11077e-12 0)
(580 -3.65789e-12 0)
(580 -3.49878e-12 0)
(580 -3.57698e-12 0)
(580 -2.99853e-12 0)
(580 -2.50873e-12 0)
(580 -2.27356e-12 0)
(580 -2.05591e-12 0)
(580 -2.4935e-12 0)
(580 -2.98539e-12 0)
(580 -3.09223e-12 0)
(580 -2.23648e-12 0)
(580 -1.86691e-12 0)
(580 -1.73698e-12 0)
(580 -1.54043e-12 0)
(580 -1.15836e-12 0)
(580 -9.39794e-13 0)
(580 -7.69125e-13 0)
(580 -5.83359e-13 0)
(580 -3.62668e-13 0)
(580 -3.65447e-13 0)
(580 -2.41133e-13 0)
(580 -1.10001e-13 0)
(580 -4.95058e-14 0)
(580 -3.48055e-13 0)
(580 -5.63362e-13 0)
(580 -1.03391e-12 0)
(580 -1.20857e-12 0)
(580 -1.26152e-12 0)
(580 -1.34352e-12 0)
(580 -1.41322e-12 0)
(580 -1.64559e-12 0)
(580 -1.9039e-12 0)
(580 -1.86359e-12 0)
(580 -1.85385e-12 0)
(580 -1.83862e-12 0)
(580 -2.07395e-12 0)
(580 -2.16983e-12 0)
(580 -2.27631e-12 0)
(580 -2.57727e-12 0)
(580 -2.55475e-12 0)
(580 -2.74849e-12 0)
(580 -2.97433e-12 0)
(580 -3.1823e-12 0)
(580 -3.38741e-12 0)
(580 -3.32375e-12 0)
(580 -3.10216e-12 0)
(580 -2.73386e-12 0)
(580 -2.2868e-12 0)
(580 -2.12715e-12 0)
(580 -1.90193e-12 0)
(580 -1.94848e-12 0)
(580 -1.86346e-12 0)
(580 -1.8435e-12 0)
(580 -1.54016e-12 0)
(580 -1.33177e-12 0)
(580 -1.28439e-12 0)
(580 -1.26462e-12 0)
(580 -1.14317e-12 0)
(580 -1.23937e-12 0)
(580 -1.58548e-12 0)
(580 -2.10789e-12 0)
(580 -2.61153e-12 0)
(580 -3.4834e-12 0)
(580 -3.8239e-12 0)
(580 -3.93954e-12 0)
(580 -3.33192e-12 0)
(580 -2.30717e-12 0)
(580 -1.93164e-12 0)
(580 -1.47689e-12 0)
(580 -1.37079e-12 0)
(580 -1.29776e-12 0)
(580 -1.31129e-12 0)
(580 -1.41534e-12 0)
(580 -1.7745e-12 0)
(580 -2.03591e-12 0)
(580 -2.49693e-12 0)
(580 -2.7335e-12 0)
(580 -2.83032e-12 0)
(580 -2.88456e-12 0)
(580 -2.92615e-12 0)
(580 -3.38612e-13 0)
(580 -5.25623e-13 0)
(580 -8.77348e-13 0)
(580 -1.11468e-12 0)
(580 -1.06456e-12 0)
(580 -8.60329e-13 0)
(580 -4.9773e-13 0)
(580 -5.24119e-13 0)
(580 -5.78747e-13 0)
(580 -7.9758e-13 0)
(580 -9.50829e-13 0)
(580 -1.06695e-12 0)
(580 -1.25366e-12 0)
(580 -1.44612e-12 0)
(580 -1.44525e-12 0)
(580 -1.64787e-12 0)
(580 -1.53198e-12 0)
(580 -1.78278e-12 0)
(580 -2.44758e-12 0)
(580 -2.71698e-12 0)
(580 -2.79849e-12 0)
(580 -2.90822e-12 0)
(580 -3.08073e-12 0)
(580 -3.48097e-12 0)
(580 -3.5564e-12 0)
(580 -3.7709e-12 0)
(580 -3.81203e-12 0)
(580 -3.78073e-12 0)
(580 -3.71366e-12 0)
(580 -3.85286e-12 0)
(580 -4.02403e-12 0)
(580 -3.9476e-12 0)
(580 -3.81933e-12 0)
(580 -3.70238e-12 0)
(580 -3.59979e-12 0)
(580 -3.35917e-12 0)
(580 -2.7285e-12 0)
(580 -2.3619e-12 0)
(580 -2.20256e-12 0)
(580 -1.73844e-12 0)
(580 -1.54621e-12 0)
(580 -1.4613e-12 0)
(580 -1.74456e-12 0)
(580 -1.92944e-12 0)
(580 -2.72133e-12 0)
(580 -3.29914e-12 0)
(580 -3.82347e-12 0)
(580 -3.99778e-12 0)
(580 -3.33628e-12 0)
(580 -2.32258e-12 0)
(580 -2.25455e-12 0)
(580 -2.3704e-12 0)
(580 -2.39779e-12 0)
(580 -2.70058e-12 0)
(580 -2.87975e-12 0)
(580 -2.71564e-12 0)
(580 -2.34619e-12 0)
(580 -1.66735e-12 0)
(580 -1.62238e-12 0)
(580 -1.69178e-12 0)
(580 -1.85226e-12 0)
(580 -2.13101e-12 0)
(580 -2.4377e-12 0)
(580 -2.63913e-12 0)
(580 -3.06174e-12 0)
(580 -3.56745e-12 0)
(580 -3.90822e-12 0)
(580 -4.06841e-12 0)
(580 -4.27193e-12 0)
(580 -4.52657e-12 0)
(580 -7.56833e-13 0)
(580 -1.03754e-12 0)
(580 -1.1489e-12 0)
(580 -1.29587e-12 0)
(580 -1.34316e-12 0)
(580 -1.94406e-12 0)
(580 -2.12928e-12 0)
(580 -2.26707e-12 0)
(580 -2.34975e-12 0)
(580 -2.48933e-12 0)
(580 -2.51057e-12 0)
(580 -2.47045e-12 0)
(580 -2.18558e-12 0)
(580 -2.04587e-12 0)
(580 -2.12951e-12 0)
(580 -1.99453e-12 0)
(580 -2.16753e-12 0)
(580 -2.38087e-12 0)
(580 -2.73257e-12 0)
(580 -3.2812e-12 0)
(580 -3.6729e-12 0)
(580 -3.68911e-12 0)
(580 -3.92694e-12 0)
(580 -3.99034e-12 0)
(580 -4.06054e-12 0)
(580 -4.13308e-12 0)
(580 -4.21093e-12 0)
(580 -4.12818e-12 0)
(580 -4.05239e-12 0)
(580 -4.08639e-12 0)
(580 -3.9539e-12 0)
(580 -3.74023e-12 0)
(580 -3.52808e-12 0)
(580 -3.39902e-12 0)
(580 -3.06447e-12 0)
(580 -2.53363e-12 0)
(580 -2.14896e-12 0)
(580 -1.661e-12 0)
(580 -1.85037e-12 0)
(580 -2.57003e-12 0)
(580 -2.26864e-12 0)
(580 -2.33859e-12 0)
(580 -1.26409e-12 0)
(580 -1.42787e-12 0)
(580 -2.03419e-12 0)
(580 -2.06857e-12 0)
(580 -2.21928e-12 0)
(580 -2.73527e-12 0)
(580 -3.06581e-12 0)
(580 -3.37107e-12 0)
(580 -3.94223e-12 0)
(580 -4.14542e-12 0)
(580 -4.20842e-12 0)
(580 -4.08272e-12 0)
(580 -3.84584e-12 0)
(580 -3.88147e-12 0)
(580 -4.11634e-12 0)
(580 -4.52237e-12 0)
(580 -4.79395e-12 0)
(580 -4.97202e-12 0)
(580 -5.08503e-12 0)
(580 -5.28471e-12 0)
(580 -5.34367e-12 0)
(580 -5.54653e-12 0)
(580 -5.81412e-12 0)
(580 -6.08423e-12 0)
(580 -6.2302e-12 0)
(580 -6.35831e-12 0)
(580 -6.31183e-12 0)
(580 -6.61573e-12 0)
(580 -1.155e-12 0)
(580 -1.30949e-12 0)
(580 -1.57293e-12 0)
(580 -1.71431e-12 0)
(580 -1.77841e-12 0)
(580 -2.0173e-12 0)
(580 -2.33258e-12 0)
(580 -2.31234e-12 0)
(580 -2.31251e-12 0)
(580 -2.28428e-12 0)
(580 -2.28401e-12 0)
(580 -2.37265e-12 0)
(580 -2.67221e-12 0)
(580 -2.95994e-12 0)
(580 -2.98223e-12 0)
(580 -2.91109e-12 0)
(580 -2.79839e-12 0)
(580 -2.75986e-12 0)
(580 -2.79323e-12 0)
(580 -2.7507e-12 0)
(580 -2.82347e-12 0)
(580 -3.00043e-12 0)
(580 -3.01798e-12 0)
(580 -2.92633e-12 0)
(580 -2.94495e-12 0)
(580 -2.88918e-12 0)
(580 -2.71339e-12 0)
(580 -2.45503e-12 0)
(580 -2.38348e-12 0)
(580 -1.94606e-12 0)
(580 -1.32909e-12 0)
(580 -1.02384e-12 0)
(580 -8.90557e-13 0)
(580 -9.10369e-13 0)
(580 -8.62889e-13 0)
(580 -1.44891e-12 0)
(580 -2.25075e-12 0)
(580 -2.86576e-12 0)
(580 -2.4996e-12 0)
(580 -1.57706e-12 0)
(580 -1.76349e-12 0)
(580 -1.6625e-12 0)
(580 -2.21493e-12 0)
(580 -2.23327e-12 0)
(580 -1.85431e-12 0)
(580 -1.90968e-12 0)
(580 -2.06058e-12 0)
(580 -2.32866e-12 0)
(580 -2.54407e-12 0)
(580 -2.63321e-12 0)
(580 -2.62777e-12 0)
(580 -2.78449e-12 0)
(580 -3.09047e-12 0)
(580 -3.59532e-12 0)
(580 -4.02378e-12 0)
(580 -4.29545e-12 0)
(580 -4.5834e-12 0)
(580 -5.15565e-12 0)
(580 -5.83856e-12 0)
(580 -6.46364e-12 0)
(580 -6.6778e-12 0)
(580 -7.0206e-12 0)
(580 -7.25096e-12 0)
(580 -7.60007e-12 0)
(580 -7.62725e-12 0)
(580 -7.57503e-12 0)
(580 -7.56947e-12 0)
(580 -7.68465e-12 0)
(580 -7.9886e-12 0)
(580 -8.19675e-12 0)
(580 -8.96751e-13 0)
(580 -1.04885e-12 0)
(580 -1.03035e-12 0)
(580 -9.42652e-13 0)
(580 -9.7933e-13 0)
(580 -1.62415e-12 0)
(580 -1.74881e-12 0)
(580 -1.85187e-12 0)
(580 -1.88768e-12 0)
(580 -2.00908e-12 0)
(580 -2.18569e-12 0)
(580 -2.31848e-12 0)
(580 -2.18665e-12 0)
(580 -2.06576e-12 0)
(580 -1.92563e-12 0)
(580 -1.61807e-12 0)
(580 -1.35579e-12 0)
(580 -1.45798e-12 0)
(580 -1.02317e-12 0)
(580 -5.57091e-13 0)