/*--------------------------------*- C++ -*----------------------------------*\
| =========                 |                                                 |
| \\      /  F ield         | OpenFOAM: The Open Source CFD Toolbox           |
|  \\    /   O peration     | Version:  2306                                  |
|   \\  /    A nd           | Website:  www.openfoam.com                      |
|    \\/     M anipulation  |                                                 |
\*---------------------------------------------------------------------------*/
FoamFile
{
    version     2.0;
    format      ascii;
    arch        "LSB;label=32;scalar=64";
    class       volVectorField;
    location    "4e-05";
    object      U;
}
// * * * * * * * * * * * * * * * * * * * * * * * * * * * * * * * * * * * * * //

dimensions      [0 1 -1 0 0 0 0];

internalField   nonuniform List<vector> 
8941
(
(580 -2.35227e-13 0)
(580 -2.84856e-13 0)
(580 -3.5813e-13 0)
(580 -6.7138e-14 0)
(580 -8.17204e-14 0)
(580 -7.94696e-14 0)
(580 -1.55449e-13 0)
(580 -4.68581e-13 0)
(580 -3.39931e-13 0)
(580 -4.2556e-13 0)
(580 -4.10823e-13 0)
(580 -2.52994e-13 0)
(580 -3.84961e-13 0)
(580 -3.23466e-13 0)
(580 -4.06768e-13 0)
(580 -4.02427e-13 0)
(580 -5.90138e-13 0)
(580 -4.61188e-13 0)
(580 -5.00784e-13 0)
(580 -7.22296e-13 0)
(580 -6.2956e-13 0)
(580 -7.05707e-13 0)
(580 -6.18438e-13 0)
(580 -2.79901e-13 0)
(580 2.09435e-13 0)
(580 2.88587e-13 0)
(580 4.82484e-13 0)
(580 4.48651e-13 0)
(580 7.52107e-13 0)
(580 2.60362e-13 0)
(580 3.13886e-13 0)
(580 5.23199e-14 0)
(580 -2.5861e-13 0)
(580 -3.94424e-13 0)
(580 -2.06009e-13 0)
(580 2.57003e-13 0)
(580 2.37552e-13 0)
(580 4.18029e-13 0)
(580 3.6556e-13 0)
(580 5.92876e-13 0)
(580 4.48293e-13 0)
(580 3.51405e-13 0)
(580 2.71392e-13 0)
(580 -2.62824e-14 0)
(580 -3.7609e-13 0)
(580 -2.61753e-13 0)
(580 -1.122e-14 0)
(580 -2.1669e-13 0)
(580 -3.99732e-13 0)
(580 -5.59677e-13 0)
(580 -9.91714e-13 0)
(580 -8.76598e-13 0)
(580 -5.46735e-13 0)
(580 -1.02986e-14 0)
(580 7.41668e-14 0)
(580 2.46546e-14 0)
(580 -2.02096e-14 0)
(580 -1.07128e-13 0)
(580 1.31165e-14 0)
(580 -5.73163e-14 0)
(580 -2.61438e-13 0)
(580 -2.39612e-13 0)
(580 5.8566e-14 0)
(580 8.97348e-14 0)
(580 1.95049e-13 0)
(580 1.38862e-13 0)
(580 2.48912e-13 0)
(580 2.68478e-13 0)
(580 3.43909e-13 0)
(580 4.34591e-13 0)
(580 2.71267e-13 0)
(580 6.02157e-13 0)
(580 4.22479e-13 0)
(580 3.26665e-13 0)
(580 5.40908e-13 0)
(580 4.88392e-13 0)
(580 5.28814e-13 0)
(580 5.98942e-13 0)
(580 9.70655e-13 0)
(580 9.52907e-13 0)
(580 -8.4184e-14 0)
(580 -1.1154e-13 0)
(580 -5.90475e-14 0)
(580 8.70475e-15 0)
(580 2.21076e-13 0)
(580 1.96961e-13 0)
(580 4.70275e-15 0)
(580 -3.95754e-13 0)
(580 -2.11454e-13 0)
(580 -9.8177e-14 0)
(580 -1.27811e-13 0)
(580 -9.96443e-14 0)
(580 6.32773e-15 0)
(580 -1.513e-13 0)
(580 -5.97943e-13 0)
(580 -5.81046e-13 0)
(580 -4.86543e-13 0)
(580 -3.16253e-13 0)
(580 -4.78188e-14 0)
(580 -7.02352e-14 0)
(580 -3.28489e-13 0)
(580 -1.68896e-13 0)
(580 2.13459e-13 0)
(580 5.94573e-13 0)
(580 1.13865e-12 0)
(580 1.15492e-12 0)
(580 9.7674e-13 0)
(580 7.87657e-13 0)
(580 6.98342e-13 0)
(580 3.02226e-13 0)
(580 2.34549e-13 0)
(580 6.77511e-14 0)
(580 -9.4805e-14 0)
(580 -2.25094e-13 0)
(580 -1.56182e-13 0)
(580 2.89792e-13 0)
(580 2.24986e-13 0)
(580 5.24553e-13 0)
(580 5.81958e-13 0)
(580 6.96065e-13 0)
(580 4.82566e-13 0)
(580 6.79874e-13 0)
(580 6.28151e-13 0)
(580 2.0916e-13 0)
(580 -5.74985e-13 0)
(580 -5.39053e-13 0)
(580 -3.29106e-13 0)
(580 -5.0901e-13 0)
(580 -4.92969e-13 0)
(580 -2.99135e-13 0)
(580 -5.35702e-13 0)
(580 -5.25837e-13 0)
(580 -7.75764e-13 0)
(580 -4.06713e-13 0)
(580 -2.9206e-13 0)
(580 -3.7287e-13 0)
(580 -2.29548e-13 0)
(580 -2.91804e-13 0)
(580 8.84621e-14 0)
(580 8.28169e-14 0)
(580 -6.58696e-14 0)
(580 1.03906e-13 0)
(580 6.38443e-13 0)
(580 6.57656e-13 0)
(580 5.25487e-13 0)
(580 2.9036e-13 0)
(580 3.66576e-13 0)
(580 4.41111e-13 0)
(580 4.80151e-13 0)
(580 7.98521e-13 0)
(580 9.35643e-13 0)
(580 1.16567e-12 0)
(580 7.84076e-13 0)
(580 8.37269e-13 0)
(580 1.01745e-12 0)
(580 1.40101e-12 0)
(580 1.62616e-12 0)
(580 1.81833e-12 0)
(580 1.50645e-12 0)
(580 1.04399e-12 0)
(580 1.98303e-13 0)
(580 1.9523e-13 0)
(580 3.98032e-13 0)
(580 3.47891e-13 0)
(580 3.58653e-13 0)
(580 2.56442e-13 0)
(580 9.1085e-14 0)
(580 1.92317e-13 0)
(580 1.51222e-13 0)
(580 2.47717e-13 0)
(580 1.76021e-13 0)
(580 -1.00698e-13 0)
(580 1.86672e-13 0)
(580 1.697e-13 0)
(580 -3.58369e-14 0)
(580 7.68404e-15 0)
(580 5.63549e-14 0)
(580 -1.36861e-13 0)
(580 -3.05674e-13 0)
(580 -9.02353e-13 0)
(580 -1.20792e-12 0)
(580 -9.80829e-13 0)
(580 -5.68574e-13 0)
(580 -3.20725e-13 0)
(580 1.54123e-15 0)
(580 2.92769e-13 0)
(580 -2.28618e-13 0)
(580 2.61077e-13 0)
(580 -7.5248e-14 0)
(580 -2.77976e-14 0)
(580 -1.78595e-13 0)
(580 2.00522e-13 0)
(580 3.60564e-13 0)
(580 3.66352e-13 0)
(580 1.89487e-13 0)
(580 7.70096e-14 0)
(580 -5.19785e-14 0)
(580 2.4758e-13 0)
(580 4.78903e-13 0)
(580 4.02738e-13 0)
(580 2.43378e-13 0)
(580 3.8291e-13 0)
(580 5.75601e-13 0)
(580 5.78858e-13 0)
(580 4.34202e-13 0)
(580 1.05592e-13 0)
(580 -1.66469e-13 0)
(580 -1.73447e-13 0)
(580 -3.1135e-14 0)
(580 -1.02867e-13 0)
(580 -1.93551e-13 0)
(580 -3.34069e-13 0)
(580 -5.313e-13 0)
(580 -8.1084e-13 0)
(580 -9.49787e-13 0)
(580 -1.21389e-12 0)
(580 -9.23646e-13 0)
(580 -5.308e-13 0)
(580 -5.96366e-13 0)
(580 -4.39188e-13 0)
(580 -3.37925e-13 0)
(580 2.12756e-13 0)
(580 5.28546e-13 0)
(580 6.47986e-13 0)
(580 7.59248e-13 0)
(580 8.16981e-13 0)
(580 8.16043e-13 0)
(580 1.27764e-12 0)
(580 1.67138e-12 0)
(580 1.85497e-12 0)
(580 2.01417e-12 0)
(580 1.67336e-12 0)
(580 1.22722e-12 0)
(580 6.80208e-13 0)
(580 5.81277e-13 0)
(580 1.19564e-12 0)
(580 1.84829e-12 0)
(580 1.91054e-12 0)
(580 1.43537e-12 0)
(580 9.61245e-13 0)
(580 1.47107e-13 0)
(580 1.73449e-13 0)
(580 2.71705e-13 0)
(580 4.71991e-13 0)
(580 3.65355e-13 0)
(580 2.51847e-13 0)
(580 9.32611e-14 0)
(580 1.63852e-13 0)
(580 -3.92307e-14 0)
(580 -3.6927e-15 0)
(580 3.15775e-14 0)
(580 1.14667e-13 0)
(580 -1.12436e-13 0)
(580 -8.7397e-14 0)
(580 -3.52896e-13 0)
(580 -2.45349e-13 0)
(580 -2.80724e-13 0)
(580 -3.79117e-13 0)
(580 -6.40648e-13 0)
(580 -6.21204e-13 0)
(580 -4.37032e-13 0)
(580 -3.50704e-13 0)
(580 -5.87535e-13 0)
(580 -4.2356e-13 0)
(580 -2.67794e-13 0)
(580 -1.11462e-13 0)
(580 -9.13768e-14 0)
(580 7.72168e-14 0)
(580 3.94176e-13 0)
(580 2.06432e-13 0)
(580 2.15093e-13 0)
(580 -6.3411e-14 0)
(580 4.0455e-13 0)
(580 2.90026e-13 0)
(580 4.13119e-13 0)
(580 6.8206e-13 0)
(580 5.31825e-13 0)
(580 3.58707e-13 0)
(580 3.16284e-13 0)
(580 3.4476e-13 0)
(580 2.66093e-13 0)
(580 1.47115e-13 0)
(580 2.62065e-13 0)
(580 5.91924e-13 0)
(580 9.01225e-13 0)
(580 7.12271e-13 0)
(580 7.57286e-13 0)
(580 7.39902e-13 0)
(580 6.38572e-13 0)
(580 3.03071e-13 0)
(580 3.84056e-14 0)
(580 -3.71527e-13 0)
(580 -8.45286e-13 0)
(580 -1.18395e-12 0)
(580 -9.44622e-13 0)
(580 -3.89912e-13 0)
(580 -5.17005e-13 0)
(580 -7.78042e-13 0)
(580 -1.05231e-12 0)
(580 -8.00253e-13 0)
(580 -4.45311e-13 0)
(580 2.20522e-13 0)
(580 5.82485e-13 0)
(580 8.8531e-13 0)
(580 9.5822e-13 0)
(580 1.01074e-12 0)
(580 1.1848e-12 0)
(580 2.01593e-12 0)
(580 2.86933e-12 0)
(580 2.94027e-12 0)
(580 2.81499e-12 0)
(580 2.25148e-12 0)
(580 1.7168e-12 0)
(580 1.23217e-12 0)
(580 1.05159e-12 0)
(580 1.01488e-12 0)
(580 1.26809e-12 0)
(580 1.95803e-12 0)
(580 2.09627e-12 0)
(580 2.00942e-12 0)
(580 -2.9937e-14 0)
(580 1.48732e-13 0)
(580 4.82172e-13 0)
(580 4.94257e-13 0)
(580 3.80473e-13 0)
(580 1.50617e-13 0)
(580 9.71066e-14 0)
(580 -3.66002e-13 0)
(580 -6.30174e-13 0)
(580 -7.22565e-13 0)
(580 -4.78101e-13 0)
(580 -2.69625e-13 0)
(580 -5.75467e-13 0)
(580 -7.0599e-13 0)
(580 -6.25103e-13 0)
(580 -5.84087e-13 0)
(580 -5.19733e-13 0)
(580 -4.91608e-13 0)
(580 -3.74667e-13 0)
(580 -1.60345e-14 0)
(580 2.21053e-13 0)
(580 1.86191e-13 0)
(580 6.33642e-14 0)
(580 -1.3809e-13 0)
(580 -7.63079e-14 0)
(580 1.47884e-14 0)
(580 4.80206e-13 0)
(580 5.5448e-13 0)
(580 5.01137e-13 0)
(580 5.08797e-13 0)
(580 2.56088e-13 0)
(580 4.78916e-14 0)
(580 6.7836e-14 0)
(580 2.67554e-13 0)
(580 5.50123e-13 0)
(580 6.68157e-13 0)
(580 8.67343e-13 0)
(580 6.52549e-13 0)
(580 4.02898e-13 0)
(580 4.7421e-13 0)
(580 4.40081e-13 0)
(580 4.10121e-13 0)
(580 3.43119e-13 0)
(580 2.31856e-14 0)
(580 2.41177e-13 0)
(580 6.63017e-13 0)
(580 8.0949e-13 0)
(580 9.24937e-13 0)
(580 7.48772e-13 0)
(580 5.47548e-13 0)
(580 1.52744e-13 0)
(580 -3.64166e-13 0)
(580 -6.75175e-13 0)
(580 -3.63553e-13 0)
(580 -8.96672e-13 0)
(580 -1.0415e-12 0)
(580 -1.05774e-12 0)
(580 -1.89469e-13 0)
(580 6.58446e-13 0)
(580 7.50453e-13 0)
(580 5.96472e-13 0)
(580 5.16127e-13 0)
(580 7.16986e-13 0)
(580 1.1435e-12 0)
(580 1.35692e-12 0)
(580 1.43013e-12 0)
(580 1.63644e-12 0)
(580 1.87195e-12 0)
(580 2.36698e-12 0)
(580 2.80608e-12 0)
(580 2.81145e-12 0)
(580 2.37734e-12 0)
(580 2.31646e-12 0)
(580 2.45949e-12 0)
(580 2.44113e-12 0)
(580 2.77282e-12 0)
(580 2.57227e-12 0)
(580 2.28314e-12 0)
(580 2.48351e-12 0)
(580 2.6205e-12 0)
(580 -2.6074e-13 0)
(580 -2.92865e-13 0)
(580 -2.90001e-15 0)
(580 6.10633e-14 0)
(580 -4.14841e-14 0)
(580 -1.78712e-14 0)
(580 1.36597e-13 0)
(580 -1.41566e-13 0)
(580 -3.49819e-13 0)
(580 -5.01202e-13 0)
(580 -7.85006e-13 0)
(580 -8.32345e-13 0)
(580 -9.57535e-13 0)
(580 -7.31772e-13 0)
(580 -1.61388e-13 0)
(580 -2.68888e-13 0)
(580 -4.07946e-13 0)
(580 -7.63e-13 0)
(580 -5.54598e-13 0)
(580 4.49643e-15 0)
(580 1.65481e-14 0)
(580 -4.09048e-14 0)
(580 3.95966e-14 0)
(580 -6.83131e-14 0)
(580 1.47659e-14 0)
(580 1.2787e-13 0)
(580 3.28868e-13 0)
(580 4.28162e-13 0)
(580 3.80849e-13 0)
(580 6.33034e-13 0)
(580 6.04533e-13 0)
(580 5.71142e-13 0)
(580 3.12421e-13 0)
(580 2.25142e-13 0)
(580 1.32789e-13 0)
(580 4.34684e-14 0)
(580 2.55659e-13 0)
(580 7.0687e-13 0)
(580 8.332e-13 0)
(580 9.55404e-13 0)
(580 7.93152e-13 0)
(580 7.13922e-13 0)
(580 5.76884e-13 0)
(580 1.74365e-13 0)
(580 -7.36011e-14 0)
(580 -4.21512e-14 0)
(580 -1.97921e-13 0)
(580 2.18209e-14 0)
(580 -8.77492e-14 0)
(580 -2.05405e-13 0)
(580 -5.19829e-13 0)
(580 -8.37511e-13 0)
(580 -7.56428e-13 0)
(580 -4.14498e-13 0)
(580 -6.02945e-13 0)
(580 -5.81875e-13 0)
(580 -5.4182e-13 0)
(580 -3.49485e-13 0)
(580 2.95443e-13 0)
(580 5.85768e-13 0)
(580 7.10847e-13 0)
(580 5.57939e-13 0)
(580 9.68851e-13 0)
(580 1.10773e-12 0)
(580 1.25801e-12 0)
(580 1.43554e-12 0)
(580 1.60465e-12 0)
(580 1.82349e-12 0)
(580 1.91191e-12 0)
(580 1.57228e-12 0)
(580 1.96925e-12 0)
(580 2.35279e-12 0)
(580 2.51873e-12 0)
(580 2.42811e-12 0)
(580 2.55152e-12 0)
(580 2.5817e-12 0)
(580 2.30414e-12 0)
(580 2.44955e-12 0)
(580 2.7287e-12 0)
(580 3.1382e-12 0)
(580 1.42958e-14 0)
(580 -6.2457e-14 0)
(580 -4.16754e-13 0)
(580 -3.24406e-13 0)
(580 -6.36667e-14 0)
(580 3.22565e-13 0)
(580 4.17085e-13 0)
(580 4.82451e-13 0)
(580 3.02812e-13 0)
(580 -6.71931e-14 0)
(580 -4.71819e-13 0)
(580 -6.25464e-13 0)
(580 -5.24031e-13 0)
(580 -4.91429e-13 0)
(580 -5.11838e-13 0)
(580 -6.02482e-13 0)
(580 -1.10628e-12 0)
(580 -1.22484e-12 0)
(580 -1.17838e-12 0)
(580 -9.79858e-13 0)
(580 -7.71079e-13 0)
(580 -6.74945e-13 0)
(580 -4.18675e-13 0)
(580 -2.93825e-13 0)
(580 -2.70833e-13 0)
(580 -7.77392e-14 0)
(580 -1.46765e-13 0)
(580 -2.06384e-13 0)
(580 7.46064e-15 0)
(580 4.57867e-13 0)
(580 8.95792e-13 0)
(580 8.82381e-13 0)
(580 4.42965e-13 0)
(580 3.04931e-13 0)
(580 3.16318e-13 0)
(580 3.02159e-13 0)
(580 3.03637e-13 0)
(580 3.19568e-13 0)
(580 5.65648e-13 0)
(580 5.91803e-13 0)
(580 4.53666e-13 0)
(580 3.57511e-13 0)
(580 3.74881e-13 0)
(580 4.17041e-13 0)
(580 4.96779e-14 0)
(580 -7.38519e-13 0)
(580 -9.61841e-13 0)
(580 -9.29572e-13 0)
(580 -8.0255e-13 0)
(580 -4.90073e-13 0)
(580 -9.13111e-13 0)
(580 -1.16577e-12 0)
(580 -9.02517e-13 0)
(580 -7.98924e-13 0)
(580 -3.55907e-13 0)
(580 -2.5128e-13 0)
(580 -2.23475e-13 0)
(580 -1.45513e-13 0)
(580 -3.65458e-14 0)
(580 8.28423e-14 0)
(580 5.35648e-13 0)
(580 5.60031e-13 0)
(580 5.85448e-13 0)
(580 9.91413e-13 0)
(580 1.05003e-12 0)
(580 1.6124e-12 0)
(580 1.92278e-12 0)
(580 2.01901e-12 0)
(580 1.73311e-12 0)
(580 1.44491e-12 0)
(580 1.60442e-12 0)
(580 1.90783e-12 0)
(580 2.46084e-12 0)
(580 2.54863e-12 0)
(580 2.27089e-12 0)
(580 1.84514e-12 0)
(580 2.04222e-12 0)
(580 2.39412e-12 0)
(580 2.84512e-12 0)
(580 2.98341e-12 0)
(580 1.25314e-13 0)
(580 2.39215e-13 0)
(580 1.22394e-13 0)
(580 1.47768e-13 0)
(580 4.13623e-13 0)
(580 6.09941e-13 0)
(580 5.96385e-13 0)
(580 6.75434e-13 0)
(580 6.12578e-13 0)
(580 4.23383e-13 0)
(580 4.14241e-13 0)
(580 1.50053e-13 0)
(580 -6.437e-14 0)
(580 -3.87521e-13 0)
(580 -6.44068e-13 0)
(580 -9.96352e-13 0)
(580 -1.07029e-12 0)
(580 -9.17177e-13 0)
(580 -9.65415e-13 0)
(580 -1.23045e-12 0)
(580 -9.74807e-13 0)
(580 -6.68614e-13 0)
(580 -2.50621e-13 0)
(580 2.03521e-13 0)
(580 1.72317e-13 0)
(580 1.76873e-14 0)
(580 1.81815e-13 0)
(580 2.62564e-14 0)
(580 9.39877e-14 0)
(580 3.31749e-13 0)
(580 2.56658e-13 0)
(580 2.25682e-13 0)
(580 1.40765e-13 0)
(580 1.62166e-13 0)
(580 3.37469e-13 0)
(580 3.6011e-13 0)
(580 2.71516e-13 0)
(580 2.4981e-13 0)
(580 4.66093e-13 0)
(580 3.09101e-13 0)
(580 3.60035e-13 0)
(580 2.29797e-13 0)
(580 1.57548e-13 0)
(580 -4.08767e-14 0)
(580 -1.67222e-13 0)
(580 -6.0881e-13 0)
(580 -1.10819e-12 0)
(580 -1.27348e-12 0)
(580 -1.14102e-12 0)
(580 -9.21143e-13 0)
(580 -8.61131e-13 0)
(580 -6.89912e-13 0)
(580 -7.78372e-13 0)
(580 -8.26561e-13 0)
(580 -3.5385e-13 0)
(580 -1.75642e-13 0)
(580 2.3556e-13 0)
(580 2.50136e-13 0)
(580 5.39916e-13 0)
(580 6.38527e-13 0)
(580 7.42225e-13 0)
(580 9.53906e-13 0)
(580 9.99485e-13 0)
(580 1.47282e-12 0)
(580 1.62112e-12 0)
(580 1.72945e-12 0)
(580 1.78428e-12 0)
(580 1.821e-12 0)
(580 1.69959e-12 0)
(580 1.7638e-12 0)
(580 1.52843e-12 0)
(580 1.66313e-12 0)
(580 2.00856e-12 0)
(580 2.14085e-12 0)
(580 1.90793e-12 0)
(580 1.72097e-12 0)
(580 1.90672e-12 0)
(580 1.91627e-12 0)
(580 1.83849e-12 0)
(580 1.92372e-12 0)
(580 -1.31559e-14 0)
(580 4.17884e-14 0)
(580 1.49986e-13 0)
(580 3.14366e-15 0)
(580 5.11362e-14 0)
(580 2.02805e-15 0)
(580 5.14752e-14 0)
(580 2.11304e-13 0)
(580 3.42019e-13 0)
(580 4.3349e-13 0)
(580 3.16137e-13 0)
(580 2.0343e-13 0)
(580 2.62363e-14 0)
(580 -2.34504e-13 0)
(580 -4.75814e-13 0)
(580 -7.4683e-13 0)
(580 -7.14149e-13 0)
(580 -8.01129e-13 0)
(580 -7.92559e-13 0)
(580 -7.71638e-13 0)
(580 -6.9109e-13 0)
(580 -9.67044e-14 0)
(580 1.26051e-13 0)
(580 2.98356e-13 0)
(580 1.67513e-14 0)
(580 -2.76105e-13 0)
(580 -2.37298e-13 0)
(580 5.05867e-14 0)
(580 -2.55488e-13 0)
(580 -3.14074e-13 0)
(580 -4.4785e-13 0)
(580 -4.6748e-13 0)
(580 -2.34815e-13 0)
(580 -1.23133e-13 0)
(580 2.246e-13 0)
(580 4.71914e-13 0)
(580 3.27904e-13 0)
(580 2.6318e-13 0)
(580 3.23637e-13 0)
(580 1.03202e-13 0)
(580 6.33006e-14 0)
(580 -2.88193e-13 0)
(580 -6.93548e-13 0)
(580 -6.08507e-13 0)
(580 -2.83326e-13 0)
(580 -2.04812e-13 0)
(580 -1.6759e-13 0)
(580 -4.79762e-13 0)
(580 -7.56716e-13 0)
(580 -8.42761e-13 0)
(580 -7.1366e-13 0)
(580 -2.1539e-13 0)
(580 -2.03497e-13 0)
(580 -4.25936e-13 0)
(580 -1.49408e-13 0)
(580 4.18045e-14 0)
(580 4.50953e-13 0)
(580 7.99572e-13 0)
(580 9.96258e-13 0)
(580 1.28254e-12 0)
(580 1.33971e-12 0)
(580 1.26632e-12 0)
(580 1.51982e-12 0)
(580 1.77346e-12 0)
(580 1.86127e-12 0)
(580 1.58574e-12 0)
(580 1.33222e-12 0)
(580 1.34959e-12 0)
(580 1.63481e-12 0)
(580 1.9716e-12 0)
(580 1.82256e-12 0)
(580 1.53187e-12 0)
(580 1.2529e-12 0)
(580 1.31116e-12 0)
(580 1.51982e-12 0)
(580 1.63371e-12 0)
(580 1.44198e-12 0)
(580 1.29537e-12 0)
(580 1.05274e-12 0)
(580 9.43868e-13 0)
(580 1.48191e-15 0)
(580 -1.32642e-13 0)
(580 -1.87344e-13 0)
(580 -3.20736e-13 0)
(580 -4.78112e-13 0)
(580 -5.21999e-13 0)
(580 -5.39994e-13 0)
(580 -4.01976e-13 0)
(580 -2.89325e-13 0)
(580 -1.71072e-13 0)
(580 -1.51419e-13 0)
(580 -2.45259e-13 0)
(580 -3.04792e-13 0)
(580 -4.80899e-13 0)
(580 -6.02155e-13 0)
(580 -5.95397e-13 0)
(580 -1.9689e-13 0)
(580 -1.03488e-13 0)
(580 -1.72162e-13 0)
(580 -2.29808e-13 0)
(580 -5.24019e-13 0)
(580 -4.93208e-13 0)
(580 -3.92569e-13 0)
(580 -6.15244e-13 0)
(580 -7.70819e-13 0)
(580 -9.38804e-13 0)
(580 -1.26491e-12 0)
(580 -1.36411e-12 0)
(580 -1.386e-12 0)
(580 -1.2311e-12 0)
(580 -1.01072e-12 0)
(580 -7.81836e-13 0)
(580 -5.95685e-13 0)
(580 -3.52155e-13 0)
(580 -2.03127e-13 0)
(580 -1.06685e-13 0)
(580 -5.65745e-14 0)
(580 2.54516e-14 0)
(580 -8.51512e-14 0)
(580 -3.24998e-13 0)
(580 -4.97978e-13 0)
(580 -7.72469e-13 0)
(580 -9.77015e-13 0)
(580 -1.02138e-12 0)
(580 -8.80058e-13 0)
(580 -6.40365e-13 0)
(580 -2.95202e-13 0)
(580 -4.25032e-13 0)
(580 -4.06832e-13 0)
(580 -4.82219e-13 0)
(580 -3.74456e-13 0)
(580 -2.69188e-13 0)
(580 -7.48197e-14 0)
(580 9.29666e-14 0)
(580 4.34855e-13 0)
(580 5.8188e-13 0)
(580 8.10739e-13 0)
(580 1.16515e-12 0)
(580 1.22332e-12 0)
(580 1.53675e-12 0)
(580 1.66629e-12 0)
(580 1.26937e-12 0)
(580 1.24117e-12 0)
(580 1.35452e-12 0)
(580 1.45247e-12 0)
(580 1.35657e-12 0)
(580 1.43299e-12 0)
(580 1.59128e-12 0)
(580 1.61315e-12 0)
(580 1.81052e-12 0)
(580 2.08073e-12 0)
(580 1.66816e-12 0)
(580 1.24634e-12 0)
(580 1.35271e-12 0)
(580 1.58005e-12 0)
(580 1.58753e-12 0)
(580 1.31753e-12 0)
(580 9.37537e-13 0)
(580 5.85804e-13 0)
(580 7.07852e-13 0)
(580 -1.29645e-14 0)
(580 -5.9011e-14 0)
(580 -1.7507e-13 0)
(580 -1.63599e-13 0)
(580 -4.0533e-13 0)
(580 -3.3174e-13 0)
(580 -3.74394e-13 0)
(580 -3.54828e-13 0)
(580 -3.46155e-13 0)
(580 -2.46213e-13 0)
(580 -1.76015e-13 0)
(580 -2.54157e-13 0)
(580 -4.49147e-13 0)
(580 -3.26501e-13 0)
(580 -3.3317e-13 0)
(580 -3.47336e-13 0)
(580 -6.53638e-14 0)
(580 4.19725e-14 0)
(580 -8.80094e-15 0)
(580 -2.00778e-13 0)
(580 -4.41199e-13 0)
(580 -7.45991e-13 0)
(580 -1.20709e-12 0)
(580 -1.50917e-12 0)
(580 -1.52139e-12 0)
(580 -1.6046e-12 0)
(580 -1.66081e-12 0)
(580 -1.83319e-12 0)
(580 -1.64695e-12 0)
(580 -1.3974e-12 0)
(580 -1.20212e-12 0)
(580 -1.01903e-12 0)
(580 -8.91962e-13 0)
(580 -6.97697e-13 0)
(580 -6.97096e-13 0)
(580 -5.41688e-13 0)
(580 -4.37917e-13 0)
(580 -4.246e-13 0)
(580 -5.28851e-13 0)
(580 -7.54905e-13 0)
(580 -9.58569e-13 0)
(580 -9.89997e-13 0)
(580 -9.66229e-13 0)
(580 -1.32704e-12 0)
(580 -1.42218e-12 0)
(580 -1.28331e-12 0)
(580 -9.39871e-13 0)
(580 -5.00355e-13 0)
(580 -2.77403e-13 0)
(580 2.0737e-14 0)
(580 2.05276e-13 0)
(580 1.97251e-13 0)
(580 3.42241e-13 0)
(580 5.10349e-13 0)
(580 8.60519e-13 0)
(580 9.53517e-13 0)
(580 9.89939e-13 0)
(580 9.05735e-13 0)
(580 9.10701e-13 0)
(580 1.11934e-12 0)
(580 1.06861e-12 0)
(580 9.4532e-13 0)
(580 7.26735e-13 0)
(580 1.08653e-12 0)
(580 1.567e-12 0)
(580 1.97277e-12 0)
(580 1.66396e-12 0)
(580 1.61973e-12 0)
(580 1.69314e-12 0)
(580 2.24523e-12 0)
(580 2.47565e-12 0)
(580 2.35784e-12 0)
(580 2.0123e-12 0)
(580 1.96597e-12 0)
(580 1.90353e-12 0)
(580 1.9291e-12 0)
(580 1.85678e-12 0)
(580 1.50997e-12 0)
(580 1.31414e-12 0)
(580 1.19526e-12 0)
(580 -6.73161e-14 0)
(580 4.40865e-14 0)
(580 -1.65345e-14 0)
(580 -1.05458e-14 0)
(580 1.46842e-14 0)
(580 4.03012e-14 0)
(580 -2.3073e-14 0)
(580 -6.37232e-14 0)
(580 -1.41348e-13 0)
(580 -2.3305e-13 0)
(580 -2.69627e-13 0)
(580 -1.13352e-13 0)
(580 -4.32993e-14 0)
(580 1.24452e-13 0)
(580 4.68865e-14 0)
(580 1.80988e-14 0)
(580 -1.6026e-13 0)
(580 -2.58461e-13 0)
(580 -2.42081e-13 0)
(580 -2.57688e-13 0)
(580 -2.92887e-13 0)
(580 -6.09588e-13 0)
(580 -9.95999e-13 0)
(580 -1.43514e-12 0)
(580 -1.5713e-12 0)
(580 -1.539e-12 0)
(580 -1.51458e-12 0)
(580 -1.398e-12 0)
(580 -1.16318e-12 0)
(580 -1.15907e-12 0)
(580 -1.00626e-12 0)
(580 -8.31818e-13 0)
(580 -5.50143e-13 0)
(580 -3.92954e-13 0)
(580 -4.09115e-13 0)
(580 -3.07626e-13 0)
(580 -2.92015e-13 0)
(580 -5.41766e-13 0)
(580 -8.21315e-13 0)
(580 -9.37725e-13 0)
(580 -9.56712e-13 0)
(580 -9.21762e-13 0)
(580 -9.76847e-13 0)
(580 -9.17174e-13 0)
(580 -8.18357e-13 0)
(580 -5.96311e-13 0)
(580 -3.57654e-13 0)
(580 7.94573e-15 0)
(580 9.79922e-14 0)
(580 4.76904e-13 0)
(580 1.13038e-12 0)
(580 1.43019e-12 0)
(580 1.46958e-12 0)
(580 1.42396e-12 0)
(580 1.32861e-12 0)
(580 1.2437e-12 0)
(580 1.06007e-12 0)
(580 1.00774e-12 0)
(580 1.04372e-12 0)
(580 1.06511e-12 0)
(580 8.41321e-13 0)
(580 9.1398e-13 0)
(580 1.30438e-12 0)
(580 1.30264e-12 0)
(580 1.20004e-12 0)
(580 1.35472e-12 0)
(580 1.2381e-12 0)
(580 1.55039e-12 0)
(580 1.7022e-12 0)
(580 2.04001e-12 0)
(580 2.3706e-12 0)
(580 2.4947e-12 0)
(580 2.49258e-12 0)
(580 2.1452e-12 0)
(580 2.00915e-12 0)
(580 1.80421e-12 0)
(580 1.64206e-12 0)
(580 1.66137e-12 0)
(580 1.85693e-12 0)
(580 2.01301e-12 0)
(580 1.13257e-13 0)
(580 1.0355e-13 0)
(580 1.94258e-13 0)
(580 1.94835e-13 0)
(580 3.12581e-13 0)
(580 1.46016e-13 0)
(580 -1.46022e-14 0)
(580 -3.11364e-13 0)
(580 -3.85143e-13 0)
(580 -4.47e-13 0)
(580 -4.27947e-13 0)
(580 -2.8248e-13 0)
(580 -2.16194e-14 0)
(580 -5.14779e-14 0)
(580 -2.39134e-13 0)
(580 -1.8233e-13 0)
(580 -5.40084e-13 0)
(580 -6.89251e-13 0)
(580 -4.70508e-13 0)
(580 -3.44067e-13 0)
(580 -4.45582e-13 0)
(580 -9.19351e-13 0)
(580 -9.3131e-13 0)
(580 -9.51811e-13 0)
(580 -1.10971e-12 0)
(580 -1.12578e-12 0)
(580 -9.71566e-13 0)
(580 -7.204e-13 0)
(580 -6.01077e-13 0)
(580 -1.02545e-12 0)
(580 -9.55461e-13 0)
(580 -5.8287e-13 0)
(580 -4.43003e-13 0)
(580 -3.50665e-13 0)
(580 -3.55799e-13 0)
(580 -4.8174e-13 0)
(580 -4.49894e-13 0)
(580 -5.112e-13 0)
(580 -5.8932e-13 0)
(580 -6.02744e-13 0)
(580 -6.25093e-13 0)
(580 -5.50688e-13 0)
(580 -3.78903e-13 0)
(580 -9.71266e-14 0)
(580 2.39263e-13 0)
(580 1.69792e-13 0)
(580 2.14258e-13 0)
(580 2.97873e-13 0)
(580 4.8857e-13 0)
(580 1.02376e-12 0)
(580 1.4626e-12 0)
(580 1.82127e-12 0)
(580 2.04553e-12 0)
(580 1.99698e-12 0)
(580 1.76132e-12 0)
(580 1.49242e-12 0)
(580 1.39387e-12 0)
(580 1.27751e-12 0)
(580 1.20531e-12 0)
(580 1.10208e-12 0)
(580 1.05091e-12 0)
(580 1.5133e-12 0)
(580 2.00479e-12 0)
(580 1.76152e-12 0)
(580 1.77598e-12 0)
(580 1.69083e-12 0)
(580 1.97289e-12 0)
(580 2.22193e-12 0)
(580 2.18137e-12 0)
(580 1.98026e-12 0)
(580 2.03432e-12 0)
(580 2.12562e-12 0)
(580 1.80336e-12 0)
(580 1.92257e-12 0)
(580 1.8839e-12 0)
(580 1.9039e-12 0)
(580 1.76572e-12 0)
(580 1.76513e-12 0)
(580 1.75433e-12 0)
(580 1.7774e-12 0)
(580 2.43551e-14 0)
(580 -7.59938e-15 0)
(580 -7.77805e-14 0)
(580 4.21145e-14 0)
(580 1.0084e-13 0)
(580 2.9425e-14 0)
(580 -4.65476e-14 0)
(580 -2.67219e-13 0)
(580 -4.85738e-13 0)
(580 -4.7911e-13 0)
(580 -5.67375e-13 0)
(580 -7.0048e-13 0)
(580 -6.68595e-13 0)
(580 -5.68209e-13 0)
(580 -3.25532e-13 0)
(580 -3.40826e-13 0)
(580 -4.61474e-13 0)
(580 -6.89297e-13 0)
(580 -6.0529e-13 0)
(580 -5.5384e-13 0)
(580 -6.67933e-13 0)
(580 -6.22907e-13 0)
(580 -5.26869e-13 0)
(580 -3.3815e-13 0)
(580 -5.91106e-13 0)
(580 -5.10374e-13 0)
(580 -3.96659e-13 0)
(580 -4.27495e-13 0)
(580 -6.318e-13 0)
(580 -6.87347e-13 0)
(580 -6.67352e-13 0)
(580 -4.73182e-13 0)
(580 -6.59334e-13 0)
(580 -7.90806e-13 0)
(580 -7.89654e-13 0)
(580 -8.99693e-13 0)
(580 -8.46981e-13 0)
(580 -7.35059e-13 0)
(580 -5.0113e-13 0)
(580 -8.46792e-14 0)
(580 -2.45381e-13 0)
(580 -1.06199e-13 0)
(580 2.45882e-13 0)
(580 6.14728e-13 0)
(580 9.02258e-13 0)
(580 1.0038e-12 0)
(580 8.4161e-13 0)
(580 7.44079e-13 0)
(580 8.39319e-13 0)
(580 1.05012e-12 0)
(580 1.30894e-12 0)
(580 1.54472e-12 0)
(580 1.54792e-12 0)
(580 1.57921e-12 0)
(580 1.36586e-12 0)
(580 1.01886e-12 0)
(580 9.68025e-13 0)
(580 8.12443e-13 0)
(580 7.25715e-13 0)
(580 6.21147e-13 0)
(580 9.40039e-13 0)
(580 1.59526e-12 0)
(580 1.68004e-12 0)
(580 1.88108e-12 0)
(580 2.0741e-12 0)
(580 2.16031e-12 0)
(580 2.51679e-12 0)
(580 2.55469e-12 0)
(580 2.52719e-12 0)
(580 2.24015e-12 0)
(580 1.72819e-12 0)
(580 1.8954e-12 0)
(580 1.71894e-12 0)
(580 1.74696e-12 0)
(580 1.7471e-12 0)
(580 1.74256e-12 0)
(580 1.74506e-12 0)
(580 1.77917e-12 0)
(580 1.67101e-12 0)
(580 1.60982e-12 0)
(580 -2.57389e-14 0)
(580 -2.71963e-14 0)
(580 -4.13427e-14 0)
(580 -1.2397e-13 0)
(580 -2.22974e-13 0)
(580 -3.54188e-13 0)
(580 -1.45815e-13 0)
(580 -5.45171e-14 0)
(580 -1.01992e-13 0)
(580 -2.20327e-13 0)
(580 -3.55056e-13 0)
(580 -3.82295e-13 0)
(580 -4.42834e-13 0)
(580 -2.61327e-13 0)
(580 9.08003e-14 0)
(580 1.28967e-13 0)
(580 1.23119e-13 0)
(580 -2.24416e-13 0)
(580 -4.72755e-13 0)
(580 -2.40407e-13 0)
(580 -1.30638e-13 0)
(580 7.97264e-14 0)
(580 -2.20245e-14 0)
(580 -1.17196e-13 0)
(580 -1.36903e-13 0)
(580 -3.20439e-15 0)
(580 -1.05806e-13 0)
(580 -1.04832e-13 0)
(580 -1.43327e-13 0)
(580 -4.66408e-14 0)
(580 1.69722e-13 0)
(580 1.23693e-13 0)
(580 2.79145e-13 0)
(580 1.41177e-13 0)
(580 -2.3598e-13 0)
(580 -2.04916e-13 0)
(580 8.73389e-14 0)
(580 3.73697e-13 0)
(580 5.73178e-13 0)
(580 7.43568e-13 0)
(580 1.01305e-12 0)
(580 1.16579e-12 0)
(580 1.39076e-12 0)
(580 1.60595e-12 0)
(580 1.71516e-12 0)
(580 1.65772e-12 0)
(580 1.60868e-12 0)
(580 1.61548e-12 0)
(580 1.11445e-12 0)
(580 1.00372e-12 0)
(580 1.16558e-12 0)
(580 1.08286e-12 0)
(580 1.10616e-12 0)
(580 1.13669e-12 0)
(580 1.18178e-12 0)
(580 1.14195e-12 0)
(580 1.02181e-12 0)
(580 1.20901e-12 0)
(580 1.38529e-12 0)
(580 1.48257e-12 0)
(580 1.84455e-12 0)
(580 1.91102e-12 0)
(580 1.94682e-12 0)
(580 1.97772e-12 0)
(580 2.0346e-12 0)
(580 2.14483e-12 0)
(580 2.14033e-12 0)
(580 2.06036e-12 0)
(580 2.11967e-12 0)
(580 2.19937e-12 0)
(580 2.16905e-12 0)
(580 2.20104e-12 0)
(580 2.18763e-12 0)
(580 1.9803e-12 0)
(580 1.88488e-12 0)
(580 1.81483e-12 0)
(580 1.78855e-12 0)
(580 1.61503e-12 0)
(580 1.56681e-12 0)
(580 1.58221e-12 0)
(580 3.37025e-14 0)
(580 9.258e-14 0)
(580 1.28814e-13 0)
(580 -1.08758e-13 0)
(580 -5.21146e-13 0)
(580 -5.36659e-13 0)
(580 -4.33676e-13 0)
(580 -2.16277e-13 0)
(580 -1.5021e-13 0)
(580 -9.62991e-16 0)
(580 1.3427e-13 0)
(580 9.16008e-14 0)
(580 5.21279e-14 0)
(580 -1.28967e-13 0)
(580 -3.59749e-13 0)
(580 -4.64442e-13 0)
(580 -5.47364e-13 0)
(580 -5.99521e-13 0)
(580 -7.76469e-13 0)
(580 -8.00561e-13 0)
(580 -5.53464e-13 0)
(580 -2.47239e-13 0)
(580 -3.81817e-13 0)
(580 -4.60936e-13 0)
(580 -2.23278e-13 0)
(580 -2.71373e-13 0)
(580 -3.58563e-13 0)
(580 -4.74411e-13 0)
(580 -4.75877e-13 0)
(580 -6.02591e-13 0)
(580 -3.87479e-13 0)
(580 -3.4084e-13 0)
(580 -1.30628e-13 0)
(580 -5.56681e-14 0)
(580 -2.19963e-13 0)
(580 -4.89783e-13 0)
(580 -6.14812e-13 0)
(580 -4.08891e-13 0)
(580 -2.13573e-13 0)
(580 1.43953e-13 0)
(580 7.24204e-13 0)
(580 1.09729e-12 0)
(580 1.28678e-12 0)
(580 1.41274e-12 0)
(580 1.60598e-12 0)
(580 1.79893e-12 0)
(580 2.21456e-12 0)
(580 2.23281e-12 0)
(580 1.78695e-12 0)
(580 1.37793e-12 0)
(580 1.19666e-12 0)
(580 1.11032e-12 0)
(580 1.07708e-12 0)
(580 8.6024e-13 0)
(580 1.15879e-12 0)
(580 1.72031e-12 0)
(580 1.6464e-12 0)
(580 1.82201e-12 0)
(580 1.85831e-12 0)
(580 2.38236e-12 0)
(580 2.86056e-12 0)
(580 2.32941e-12 0)
(580 2.27968e-12 0)
(580 2.09335e-12 0)
(580 1.7479e-12 0)
(580 1.59596e-12 0)
(580 1.32867e-12 0)
(580 1.21403e-12 0)
(580 1.33046e-12 0)
(580 1.45052e-12 0)
(580 1.84321e-12 0)
(580 2.22288e-12 0)
(580 2.5718e-12 0)
(580 2.48702e-12 0)
(580 2.45178e-12 0)
(580 2.47832e-12 0)
(580 2.28152e-12 0)
(580 1.97468e-12 0)
(580 1.95836e-12 0)
(580 1.91918e-12 0)
(580 -6.5715e-14 0)
(580 -2.55534e-13 0)
(580 -1.87896e-13 0)
(580 -8.44885e-14 0)
(580 -1.89341e-13 0)
(580 -1.34673e-13 0)
(580 -1.71402e-13 0)
(580 -6.3842e-14 0)
(580 -1.2183e-13 0)
(580 -2.4392e-13 0)
(580 -2.86956e-13 0)
(580 -2.21312e-13 0)
(580 7.00824e-14 0)
(580 -1.01471e-13 0)
(580 -5.62395e-13 0)
(580 -6.57474e-13 0)
(580 -8.46326e-13 0)
(580 -6.19566e-13 0)
(580 -5.49063e-13 0)
(580 -9.47645e-13 0)
(580 -8.89388e-13 0)
(580 -8.75265e-13 0)
(580 -3.54203e-13 0)
(580 -5.47932e-16 0)
(580 -5.16191e-14 0)
(580 -3.07708e-13 0)
(580 -3.53654e-13 0)
(580 -4.21477e-13 0)
(580 -3.64916e-13 0)
(580 -1.52859e-13 0)
(580 -6.83304e-14 0)
(580 -7.58507e-14 0)
(580 -2.18798e-13 0)
(580 -2.82071e-13 0)
(580 -2.89168e-13 0)
(580 -3.11456e-13 0)
(580 -7.4027e-13 0)
(580 -6.67316e-13 0)
(580 -4.7374e-13 0)
(580 -2.86981e-13 0)
(580 -9.48607e-14 0)
(580 3.13794e-13 0)
(580 4.03091e-13 0)
(580 6.67549e-13 0)
(580 1.03685e-12 0)
(580 1.62738e-12 0)
(580 1.81555e-12 0)
(580 2.00124e-12 0)
(580 1.91233e-12 0)
(580 1.54049e-12 0)
(580 1.22066e-12 0)
(580 1.22199e-12 0)
(580 1.25147e-12 0)
(580 1.3665e-12 0)
(580 1.56451e-12 0)
(580 1.68182e-12 0)
(580 1.78773e-12 0)
(580 1.87866e-12 0)
(580 2.23629e-12 0)
(580 2.75258e-12 0)
(580 2.58428e-12 0)
(580 2.79151e-12 0)
(580 2.64114e-12 0)
(580 2.08088e-12 0)
(580 1.75988e-12 0)
(580 1.61568e-12 0)
(580 1.18368e-12 0)
(580 8.00785e-13 0)
(580 7.31525e-13 0)
(580 8.97813e-13 0)
(580 1.17144e-12 0)
(580 1.57164e-12 0)
(580 1.96874e-12 0)
(580 2.43893e-12 0)
(580 2.2918e-12 0)
(580 2.18668e-12 0)
(580 1.83959e-12 0)
(580 1.7757e-12 0)
(580 1.94458e-12 0)
(580 1.90638e-12 0)
(580 -5.47605e-15 0)
(580 -1.6049e-13 0)
(580 -8.9445e-14 0)
(580 1.30943e-13 0)
(580 1.58064e-13 0)
(580 1.15358e-13 0)
(580 1.0321e-13 0)
(580 3.34022e-14 0)
(580 1.261e-13 0)
(580 3.55327e-14 0)
(580 -9.02524e-14 0)
(580 4.27441e-15 0)
(580 1.63617e-13 0)
(580 1.80718e-13 0)
(580 -1.03271e-13 0)
(580 -2.13417e-13 0)
(580 1.18111e-13 0)
(580 2.08057e-13 0)
(580 4.7489e-13 0)
(580 3.50091e-13 0)
(580 2.65889e-13 0)
(580 -1.9229e-14 0)
(580 -1.59295e-13 0)
(580 -1.14635e-13 0)
(580 4.23563e-14 0)
(580 -8.23624e-15 0)
(580 1.6798e-13 0)
(580 2.17737e-13 0)
(580 3.16971e-13 0)
(580 3.90702e-13 0)
(580 3.50796e-13 0)
(580 2.26054e-13 0)
(580 -1.01987e-13 0)
(580 -3.92202e-13 0)
(580 -1.87616e-13 0)
(580 1.15901e-13 0)
(580 9.13063e-14 0)
(580 5.64096e-15 0)
(580 -1.39298e-13 0)
(580 -1.66556e-13 0)
(580 -4.86298e-13 0)
(580 -2.49322e-13 0)
(580 7.27703e-14 0)
(580 5.9064e-13 0)
(580 4.78958e-13 0)
(580 6.03231e-13 0)
(580 1.00594e-12 0)
(580 1.35931e-12 0)
(580 1.34563e-12 0)
(580 1.37415e-12 0)
(580 1.45476e-12 0)
(580 1.65467e-12 0)
(580 2.20972e-12 0)
(580 2.39443e-12 0)
(580 2.41934e-12 0)
(580 2.27677e-12 0)
(580 2.37228e-12 0)
(580 2.59001e-12 0)
(580 2.7059e-12 0)
(580 2.76446e-12 0)
(580 2.61949e-12 0)
(580 2.37132e-12 0)
(580 2.05526e-12 0)
(580 2.03708e-12 0)
(580 1.99366e-12 0)
(580 1.97862e-12 0)
(580 1.75267e-12 0)
(580 1.61512e-12 0)
(580 1.32109e-12 0)
(580 1.14365e-12 0)
(580 1.1207e-12 0)
(580 1.05501e-12 0)
(580 8.59089e-13 0)
(580 9.30742e-13 0)