/*--------------------------------*- C++ -*----------------------------------*\
| =========                 |                                                 |
| \\      /  F ield         | OpenFOAM: The Open Source CFD Toolbox           |
|  \\    /   O peration     | Version:  2306                                  |
|   \\  /    A nd           | Website:  www.openfoam.com                      |
|    \\/     M anipulation  |                                                 |
\*---------------------------------------------------------------------------*/
FoamFile
{
    version     2.0;
    format      ascii;
    arch        "LSB;label=32;scalar=64";
    class       volVectorField;
    location    "0.0001";
    object      U;
}
// * * * * * * * * * * * * * * * * * * * * * * * * * * * * * * * * * * * * * //

dimensions      [0 1 -1 0 0 0 0];

internalField   nonuniform List<vector> 
8983
(
(580 7.12324e-14 0)
(580 8.91504e-14 0)
(580 8.05675e-14 0)
(580 1.03027e-13 0)
(580 1.62921e-13 0)
(580 1.68136e-13 0)
(580 1.36632e-13 0)
(580 1.53457e-13 0)
(580 9.37223e-14 0)
(580 3.6068e-14 0)
(580 3.33321e-14 0)
(580 -1.09019e-14 0)
(580 -8.66987e-14 0)
(580 -5.88022e-14 0)
(580 -4.27755e-14 0)
(580 2.30305e-14 0)
(580 6.10044e-14 0)
(580 4.46288e-14 0)
(580 -1.50032e-14 0)
(580 -4.5019e-14 0)
(580 -1.55421e-13 0)
(580 -7.41591e-14 0)
(580 -1.22432e-13 0)
(580 -2.5891e-13 0)
(580 -3.43702e-13 0)
(580 -4.88807e-13 0)
(580 -5.9828e-13 0)
(580 -6.76958e-13 0)
(580 -7.73886e-13 0)
(580 -7.56301e-13 0)
(580 -8.30232e-13 0)
(580 -9.30821e-13 0)
(580 -9.65721e-13 0)
(580 -9.07895e-13 0)
(580 -8.82331e-13 0)
(580 -7.24652e-13 0)
(580 -6.19104e-13 0)
(580 -4.8104e-13 0)
(580 -2.7013e-13 0)
(580 -1.42708e-13 0)
(580 -1.19303e-13 0)
(580 -6.49841e-14 0)
(580 -1.18446e-13 0)
(580 1.54186e-13 0)
(580 2.13279e-13 0)
(580 2.05481e-13 0)
(580 2.4049e-13 0)
(580 1.02904e-13 0)
(580 1.11636e-14 0)
(580 8.25051e-14 0)
(580 -2.19985e-14 0)
(580 -8.80726e-14 0)
(580 -1.57824e-13 0)
(580 -1.44788e-13 0)
(580 -1.35528e-13 0)
(580 -1.61471e-13 0)
(580 -1.46652e-13 0)
(580 -1.96189e-13 0)
(580 -2.6671e-13 0)
(580 -3.31335e-13 0)
(580 -4.15727e-13 0)
(580 -4.60645e-13 0)
(580 -5.6671e-13 0)
(580 -6.10127e-13 0)
(580 -6.601e-13 0)
(580 -6.66996e-13 0)
(580 -7.26953e-13 0)
(580 -9.55911e-13 0)
(580 -1.08117e-12 0)
(580 -1.18255e-12 0)
(580 -1.22885e-12 0)
(580 -1.02592e-12 0)
(580 -8.46341e-13 0)
(580 -8.20832e-13 0)
(580 -8.17166e-13 0)
(580 -8.48274e-13 0)
(580 -9.14695e-13 0)
(580 -1.04214e-12 0)
(580 -1.17061e-12 0)
(580 -1.27614e-12 0)
(580 -1.2732e-12 0)
(580 -1.13829e-12 0)
(580 -9.11851e-13 0)
(580 -8.23548e-13 0)
(580 -6.08818e-13 0)
(580 -3.22887e-13 0)
(580 -1.6989e-13 0)
(580 -1.10225e-13 0)
(580 -5.54795e-14 0)
(580 -1.11607e-13 0)
(580 -6.83868e-14 0)
(580 4.52052e-14 0)
(580 2.81588e-13 0)
(580 3.65261e-13 0)
(580 5.25735e-13 0)
(580 6.54462e-13 0)
(580 7.29637e-13 0)
(580 7.08784e-13 0)
(580 6.76289e-13 0)
(580 5.17378e-13 0)
(580 3.85203e-13 0)
(580 3.50852e-13 0)
(580 3.06104e-13 0)
(580 2.12301e-13 0)
(580 2.59344e-13 0)
(580 4.10072e-13 0)
(580 5.04277e-13 0)
(580 5.30297e-13 0)
(580 7.55651e-13 0)
(580 8.53844e-13 0)
(580 8.83748e-13 0)
(580 8.52606e-13 0)
(580 9.84359e-13 0)
(580 1.0512e-12 0)
(580 1.14773e-12 0)
(580 1.35612e-12 0)
(580 1.37978e-12 0)
(580 1.51005e-12 0)
(580 1.46227e-12 0)
(580 1.33979e-12 0)
(580 1.54838e-12 0)
(580 1.48658e-12 0)
(580 1.47455e-12 0)
(580 -1.13745e-13 0)
(580 -1.74601e-13 0)
(580 -1.31389e-13 0)
(580 -2.19699e-13 0)
(580 -2.32315e-13 0)
(580 -2.86723e-13 0)
(580 -2.53266e-13 0)
(580 -3.347e-13 0)
(580 -3.30069e-13 0)
(580 -4.04496e-13 0)
(580 -6.72771e-13 0)
(580 -5.37332e-13 0)
(580 -3.59586e-13 0)
(580 -2.70563e-13 0)
(580 -2.36933e-13 0)
(580 -2.75656e-13 0)
(580 -3.71943e-13 0)
(580 -4.16236e-13 0)
(580 -2.79975e-13 0)
(580 -1.43066e-13 0)
(580 -1.78487e-13 0)
(580 -3.23096e-13 0)
(580 -5.24052e-13 0)
(580 -5.90104e-13 0)
(580 -6.2134e-13 0)
(580 -7.6336e-13 0)
(580 -7.63928e-13 0)
(580 -7.94614e-13 0)
(580 -8.84436e-13 0)
(580 -9.38671e-13 0)
(580 -8.6609e-13 0)
(580 -7.2075e-13 0)
(580 -7.42314e-13 0)
(580 -8.8093e-13 0)
(580 -9.90457e-13 0)
(580 -1.08638e-12 0)
(580 -1.22488e-12 0)
(580 -1.26716e-12 0)
(580 -1.22067e-12 0)
(580 -1.18112e-12 0)
(580 -1.03328e-12 0)
(580 -9.57759e-13 0)
(580 -8.54125e-13 0)
(580 -7.45238e-13 0)
(580 -5.88533e-13 0)
(580 -4.85954e-13 0)
(580 -2.85472e-13 0)
(580 -1.10816e-13 0)
(580 2.69469e-13 0)
(580 3.92168e-13 0)
(580 4.74703e-13 0)
(580 6.25408e-13 0)
(580 6.97925e-13 0)
(580 7.68779e-13 0)
(580 8.40904e-13 0)
(580 8.72054e-13 0)
(580 9.2536e-13 0)
(580 7.94582e-13 0)
(580 5.99348e-13 0)
(580 3.11427e-13 0)
(580 7.7469e-14 0)
(580 -4.80344e-15 0)
(580 -5.13246e-14 0)
(580 -1.7004e-13 0)
(580 -2.72927e-13 0)
(580 -1.96253e-13 0)
(580 -1.56492e-13 0)
(580 -3.81554e-14 0)
(580 1.42466e-13 0)
(580 1.86518e-13 0)
(580 7.78267e-14 0)
(580 7.13029e-14 0)
(580 9.32894e-14 0)
(580 9.03784e-14 0)
(580 1.84061e-13 0)
(580 2.87833e-13 0)
(580 1.00034e-13 0)
(580 3.5537e-13 0)
(580 3.4907e-13 0)
(580 4.366e-13 0)
(580 -1.0781e-13 0)
(580 -9.7545e-14 0)
(580 -8.85599e-14 0)
(580 -1.70043e-13 0)
(580 -1.83393e-13 0)
(580 -1.543e-13 0)
(580 -7.00952e-14 0)
(580 -3.19536e-14 0)
(580 9.77395e-15 0)
(580 -6.2809e-14 0)
(580 -2.01286e-14 0)
(580 -1.11779e-14 0)
(580 8.70624e-14 0)
(580 9.31507e-14 0)
(580 1.53494e-13 0)
(580 1.23088e-13 0)
(580 2.36386e-13 0)
(580 4.5313e-13 0)
(580 5.39508e-13 0)
(580 6.39407e-13 0)
(580 6.03995e-13 0)
(580 4.66605e-13 0)
(580 3.6187e-13 0)
(580 1.33892e-13 0)
(580 6.29651e-14 0)
(580 -5.8023e-14 0)
(580 -1.29128e-13 0)
(580 -2.11497e-13 0)
(580 -6.75347e-13 0)
(580 -9.42035e-13 0)
(580 -1.00341e-12 0)
(580 -1.03534e-12 0)
(580 -1.12029e-12 0)
(580 -1.14583e-12 0)
(580 -1.32054e-12 0)
(580 -1.4309e-12 0)
(580 -1.66898e-12 0)
(580 -1.78089e-12 0)
(580 -1.76379e-12 0)
(580 -1.88149e-12 0)
(580 -1.68519e-12 0)
(580 -1.57128e-12 0)
(580 -1.30801e-12 0)
(580 -1.15031e-12 0)
(580 -7.03921e-13 0)
(580 -5.472e-13 0)
(580 -4.36743e-13 0)
(580 -3.66794e-13 0)
(580 -2.09964e-13 0)
(580 -2.65927e-13 0)
(580 -7.12092e-14 0)
(580 1.42216e-13 0)
(580 2.65649e-13 0)
(580 2.94357e-13 0)
(580 4.57877e-13 0)
(580 6.66137e-13 0)
(580 7.32902e-13 0)
(580 6.8206e-13 0)
(580 6.07616e-13 0)
(580 6.37767e-13 0)
(580 5.14587e-13 0)
(580 1.37628e-13 0)
(580 -1.08379e-13 0)
(580 -6.04737e-13 0)
(580 -7.43392e-13 0)
(580 -7.01158e-13 0)
(580 -6.5762e-13 0)
(580 -4.74228e-13 0)
(580 -2.49428e-13 0)
(580 -6.10402e-14 0)
(580 1.69503e-13 0)
(580 2.90611e-13 0)
(580 3.40379e-13 0)
(580 3.84944e-13 0)
(580 1.52252e-13 0)
(580 -1.3713e-13 0)
(580 -4.28694e-13 0)
(580 -5.82663e-13 0)
(580 -8.72532e-13 0)
(580 -9.52984e-13 0)
(580 -5.21572e-15 0)
(580 8.91493e-14 0)
(580 6.41764e-14 0)
(580 6.22581e-14 0)
(580 8.68351e-14 0)
(580 2.38897e-13 0)
(580 2.48137e-13 0)
(580 3.80611e-13 0)
(580 4.06074e-13 0)
(580 3.70457e-13 0)
(580 3.72445e-13 0)
(580 4.15755e-13 0)
(580 4.92358e-13 0)
(580 6.32539e-13 0)
(580 6.50059e-13 0)
(580 8.05481e-13 0)
(580 8.72491e-13 0)
(580 7.73478e-13 0)
(580 6.93255e-13 0)
(580 3.77673e-13 0)
(580 1.04576e-13 0)
(580 -8.60206e-14 0)
(580 -1.16678e-13 0)
(580 8.48198e-14 0)
(580 1.96433e-13 0)
(580 3.24667e-13 0)
(580 4.17229e-13 0)
(580 2.82516e-13 0)
(580 1.15215e-13 0)
(580 -2.26776e-13 0)
(580 -6.94787e-13 0)
(580 -1.02526e-12 0)
(580 -1.4342e-12 0)
(580 -1.55505e-12 0)
(580 -1.7513e-12 0)
(580 -2.19255e-12 0)
(580 -2.3372e-12 0)
(580 -2.3015e-12 0)
(580 -1.72846e-12 0)
(580 -1.38445e-12 0)
(580 -1.21916e-12 0)
(580 -1.03671e-12 0)
(580 -9.53182e-13 0)
(580 -7.19063e-13 0)
(580 -4.57635e-13 0)
(580 -3.88388e-13 0)
(580 -4.31117e-13 0)
(580 -3.39369e-13 0)
(580 -2.76241e-13 0)
(580 -1.96177e-13 0)
(580 -3.06483e-13 0)
(580 -3.18351e-13 0)
(580 -2.50773e-13 0)
(580 -2.69224e-13 0)
(580 -1.65649e-13 0)
(580 -2.01927e-13 0)
(580 -4.02364e-13 0)
(580 -3.82158e-13 0)
(580 -2.76297e-13 0)
(580 7.17145e-14 0)
(580 3.3597e-13 0)
(580 5.43098e-14 0)
(580 -7.03368e-14 0)
(580 -3.6032e-13 0)
(580 -4.66463e-13 0)
(580 -7.31629e-13 0)
(580 -9.46733e-13 0)
(580 -5.37814e-13 0)
(580 -3.50775e-13 0)
(580 7.1418e-14 0)
(580 7.14992e-13 0)
(580 1.10358e-12 0)
(580 1.26069e-12 0)
(580 1.27202e-12 0)
(580 8.41586e-13 0)
(580 2.72196e-13 0)
(580 -2.56438e-13 0)
(580 -1.02583e-12 0)
(580 -1.88188e-12 0)
(580 -2.92826e-12 0)
(580 -1.46251e-14 0)
(580 -1.79081e-13 0)
(580 -1.3743e-13 0)
(580 5.77127e-15 0)
(580 1.26156e-13 0)
(580 1.93664e-13 0)
(580 2.75259e-13 0)
(580 2.44134e-13 0)
(580 3.20051e-13 0)
(580 3.69819e-13 0)
(580 2.08533e-13 0)
(580 3.97211e-13 0)
(580 4.76887e-13 0)
(580 4.41644e-13 0)
(580 1.64438e-13 0)
(580 1.12469e-13 0)
(580 2.98833e-13 0)
(580 1.51054e-13 0)
(580 -1.48441e-13 0)
(580 -3.23783e-13 0)
(580 -5.07098e-13 0)
(580 -7.47885e-13 0)
(580 -7.83502e-13 0)
(580 -3.45133e-13 0)
(580 -1.7782e-14 0)
(580 5.12244e-13 0)
(580 5.77051e-13 0)
(580 7.41651e-13 0)
(580 1.43971e-13 0)
(580 -1.70307e-13 0)
(580 -4.62771e-13 0)
(580 -1.10876e-12 0)
(580 -1.32133e-12 0)
(580 -1.5361e-12 0)
(580 -1.83988e-12 0)
(580 -2.01017e-12 0)
(580 -1.95151e-12 0)
(580 -1.96093e-12 0)
(580 -1.75643e-12 0)
(580 -1.43245e-12 0)
(580 -1.15378e-12 0)
(580 -7.92531e-13 0)
(580 -7.34408e-13 0)
(580 -6.79068e-13 0)
(580 -6.79788e-13 0)
(580 -4.47341e-13 0)
(580 -2.90641e-13 0)
(580 -1.06831e-13 0)
(580 -6.11699e-14 0)
(580 2.93478e-14 0)
(580 4.83494e-14 0)
(580 -5.36596e-14 0)
(580 -1.37091e-13 0)
(580 -2.92477e-13 0)
(580 -4.45093e-13 0)
(580 -7.97466e-13 0)
(580 -8.39624e-13 0)
(580 -7.60883e-13 0)
(580 -7.04217e-13 0)
(580 -6.75315e-13 0)
(580 -7.52588e-13 0)
(580 -6.49996e-13 0)
(580 -4.3144e-13 0)
(580 -2.92543e-13 0)
(580 -2.65274e-13 0)
(580 -4.30795e-13 0)
(580 -5.33595e-13 0)
(580 2.18577e-13 0)
(580 4.79042e-13 0)
(580 5.55229e-13 0)
(580 4.78813e-13 0)
(580 4.87938e-13 0)
(580 5.92149e-13 0)
(580 6.65613e-13 0)
(580 1.1079e-12 0)
(580 1.00053e-12 0)
(580 1.37913e-14 0)
(580 -8.03973e-13 0)
(580 -1.4795e-12 0)
(580 -2.04591e-12 0)
(580 1.28967e-13 0)
(580 -2.49505e-14 0)
(580 4.15647e-14 0)
(580 5.19168e-14 0)
(580 1.77982e-13 0)
(580 6.02023e-14 0)
(580 1.55246e-13 0)
(580 5.41485e-14 0)
(580 3.9768e-14 0)
(580 -5.2752e-14 0)
(580 -7.31209e-14 0)
(580 -4.99621e-14 0)
(580 -8.0485e-14 0)
(580 -2.23536e-13 0)
(580 -2.47609e-13 0)
(580 -2.74904e-13 0)
(580 -3.36213e-13 0)
(580 -4.01434e-13 0)
(580 -3.45368e-13 0)
(580 -3.55973e-13 0)
(580 -2.87723e-13 0)
(580 -2.09909e-13 0)
(580 -1.28984e-13 0)
(580 -2.23073e-13 0)
(580 -2.31642e-13 0)
(580 -1.18475e-13 0)
(580 -6.16109e-15 0)
(580 -3.16788e-13 0)
(580 -5.25958e-13 0)
(580 -7.99817e-13 0)
(580 -9.23657e-13 0)
(580 -1.2111e-12 0)
(580 -1.45066e-12 0)
(580 -1.94289e-12 0)
(580 -1.97494e-12 0)
(580 -2.02686e-12 0)
(580 -2.01512e-12 0)
(580 -1.79491e-12 0)
(580 -1.44795e-12 0)
(580 -8.76851e-13 0)
(580 -6.6384e-13 0)
(580 -3.99759e-13 0)
(580 -2.73059e-13 0)
(580 -3.50303e-13 0)
(580 -4.12495e-13 0)
(580 -1.11025e-13 0)
(580 6.02834e-14 0)
(580 -7.33668e-14 0)
(580 -3.87626e-13 0)
(580 -6.20495e-13 0)
(580 -3.65237e-13 0)
(580 -2.6566e-13 0)
(580 -5.74958e-13 0)
(580 -3.42231e-13 0)
(580 -7.32157e-13 0)
(580 -6.73182e-13 0)
(580 -6.32708e-13 0)
(580 -7.78157e-13 0)
(580 -1.09104e-12 0)
(580 -1.39775e-12 0)
(580 -1.54779e-12 0)
(580 -1.30483e-12 0)
(580 -7.59716e-13 0)
(580 -2.01839e-13 0)
(580 5.21795e-14 0)
(580 2.53742e-13 0)
(580 2.70038e-13 0)
(580 2.31855e-13 0)
(580 1.44397e-13 0)
(580 6.66068e-14 0)
(580 -7.57988e-14 0)
(580 -5.39304e-14 0)
(580 2.95923e-13 0)
(580 6.22596e-13 0)
(580 9.55188e-13 0)
(580 6.42883e-14 0)
(580 -4.92405e-13 0)
(580 -7.60088e-13 0)
(580 -5.96104e-13 0)
(580 -5.62608e-13 0)
(580 6.25475e-14 0)
(580 1.55023e-13 0)
(580 3.27092e-13 0)
(580 2.12296e-13 0)
(580 1.54899e-13 0)
(580 6.01316e-14 0)
(580 -2.2084e-13 0)
(580 -2.35523e-13 0)
(580 -2.42296e-13 0)
(580 -2.46357e-13 0)
(580 -2.39167e-13 0)
(580 -4.27508e-13 0)
(580 -5.27686e-13 0)
(580 -6.57264e-13 0)
(580 -5.07554e-13 0)
(580 -5.79258e-13 0)
(580 -7.47024e-13 0)
(580 -8.27062e-13 0)
(580 -6.77156e-13 0)
(580 -5.96868e-13 0)
(580 -3.73152e-13 0)
(580 1.40185e-13 0)
(580 2.2015e-13 0)
(580 9.31549e-14 0)
(580 -9.10042e-14 0)
(580 -2.93724e-13 0)
(580 -5.57078e-13 0)
(580 -9.34701e-13 0)
(580 -1.02206e-12 0)
(580 -1.26571e-12 0)
(580 -1.28247e-12 0)
(580 -1.26086e-12 0)
(580 -1.42687e-12 0)
(580 -1.73817e-12 0)
(580 -1.75651e-12 0)
(580 -2.12329e-12 0)
(580 -2.35956e-12 0)
(580 -1.37966e-12 0)
(580 -7.72061e-13 0)
(580 -4.57366e-13 0)
(580 -1.29266e-13 0)
(580 -2.14009e-13 0)
(580 -1.36935e-14 0)
(580 -1.37413e-13 0)
(580 -2.51632e-13 0)
(580 -8.04761e-14 0)
(580 -2.23578e-15 0)
(580 2.5569e-13 0)
(580 1.37944e-13 0)
(580 -5.02052e-14 0)
(580 -8.13227e-13 0)
(580 -1.21632e-12 0)
(580 -1.46705e-12 0)
(580 -1.49036e-12 0)
(580 -1.47884e-12 0)
(580 -1.51173e-12 0)
(580 -1.64216e-12 0)
(580 -1.72678e-12 0)
(580 -1.91642e-12 0)
(580 -2.05121e-12 0)
(580 -1.97222e-12 0)
(580 -1.74313e-12 0)
(580 -1.25631e-12 0)
(580 -6.80619e-13 0)
(580 -8.22399e-14 0)
(580 7.4718e-13 0)
(580 1.01212e-12 0)
(580 8.68441e-13 0)
(580 9.9685e-13 0)
(580 1.0303e-12 0)
(580 1.15609e-12 0)
(580 1.27191e-12 0)
(580 1.18782e-12 0)
(580 6.87967e-13 0)
(580 5.87106e-14 0)
(580 -1.50896e-13 0)
(580 -1.07761e-13 0)
(580 -1.07176e-13 0)
(580 -6.81036e-14 0)
(580 -2.22452e-13 0)
(580 -5.81443e-14 0)
(580 7.76189e-14 0)
(580 -1.12018e-14 0)
(580 -1.02799e-13 0)
(580 -8.60737e-14 0)
(580 -1.35481e-13 0)
(580 -1.65366e-13 0)
(580 -1.85411e-13 0)
(580 -2.47328e-13 0)
(580 -1.80598e-13 0)
(580 -7.35035e-14 0)
(580 -3.79168e-13 0)
(580 -5.26936e-13 0)
(580 -7.48254e-13 0)
(580 -8.95057e-13 0)
(580 -1.0123e-12 0)
(580 -9.98896e-13 0)
(580 -7.50307e-13 0)
(580 -4.08859e-13 0)
(580 -2.28001e-13 0)
(580 -5.2472e-14 0)
(580 1.50335e-13 0)
(580 9.50479e-14 0)
(580 -1.73742e-13 0)
(580 -2.09609e-13 0)
(580 -5.98601e-13 0)
(580 -1.00986e-12 0)
(580 -1.51556e-12 0)
(580 -1.55211e-12 0)
(580 -1.477e-12 0)
(580 -1.45222e-12 0)
(580 -1.41469e-12 0)
(580 -9.72756e-13 0)
(580 -8.84692e-13 0)
(580 -9.64383e-13 0)
(580 -1.09012e-12 0)
(580 -1.05936e-12 0)
(580 -7.34839e-13 0)
(580 -6.84082e-13 0)
(580 -6.62036e-13 0)
(580 -4.77866e-13 0)
(580 -5.87626e-13 0)
(580 -3.57177e-13 0)
(580 -3.54287e-13 0)
(580 -2.73852e-13 0)
(580 -4.47927e-13 0)
(580 -5.96707e-13 0)
(580 -7.05834e-13 0)
(580 -4.09099e-13 0)
(580 -1.07637e-12 0)
(580 -1.39223e-12 0)
(580 -1.97302e-12 0)
(580 -2.17459e-12 0)
(580 -2.19267e-12 0)
(580 -2.0929e-12 0)
(580 -2.21636e-12 0)
(580 -2.46723e-12 0)
(580 -2.54514e-12 0)
(580 -2.31783e-12 0)
(580 -1.91157e-12 0)
(580 -1.5991e-12 0)
(580 -1.16573e-12 0)
(580 -8.60815e-13 0)
(580 -9.67264e-13 0)
(580 -6.31499e-13 0)
(580 -5.55828e-13 0)
(580 -2.80095e-14 0)
(580 9.34641e-14 0)
(580 3.04267e-13 0)
(580 3.22855e-13 0)
(580 3.16232e-13 0)
(580 3.4735e-13 0)
(580 2.63138e-13 0)
(580 1.43469e-13 0)
(580 -5.48416e-13 0)
(580 -7.14873e-13 0)
(580 -5.09147e-13 0)
(580 -2.88653e-13 0)
(580 -2.65605e-13 0)
(580 -2.05085e-13 0)
(580 -4.55434e-14 0)
(580 1.57389e-14 0)
(580 -9.21145e-14 0)
(580 -2.40217e-13 0)
(580 -3.3322e-13 0)
(580 -4.79361e-13 0)
(580 -4.33424e-13 0)
(580 -4.33905e-13 0)
(580 -3.89067e-13 0)
(580 -3.96077e-13 0)
(580 -3.92656e-13 0)
(580 -3.29258e-13 0)
(580 -4.19249e-13 0)
(580 -3.76048e-13 0)
(580 -4.85431e-13 0)
(580 -5.54505e-13 0)
(580 -5.12402e-13 0)
(580 -5.1569e-13 0)
(580 -2.9037e-13 0)
(580 -3.10481e-13 0)
(580 -2.56758e-13 0)
(580 -2.44483e-13 0)
(580 -3.45031e-13 0)
(580 -3.84842e-13 0)
(580 -7.96692e-13 0)
(580 -1.0567e-12 0)
(580 -1.18736e-12 0)
(580 -1.14903e-12 0)
(580 -1.31993e-12 0)
(580 -1.34294e-12 0)
(580 -8.3887e-13 0)
(580 -8.96476e-13 0)
(580 -4.97865e-13 0)
(580 -1.10242e-14 0)
(580 -1.79288e-14 0)
(580 1.56884e-13 0)
(580 4.29073e-13 0)
(580 9.68366e-14 0)
(580 -1.92767e-13 0)
(580 -3.39148e-13 0)
(580 -4.66744e-13 0)
(580 -4.96715e-13 0)
(580 -4.99362e-13 0)
(580 -7.23538e-13 0)
(580 -8.61711e-13 0)
(580 -8.79737e-13 0)
(580 -1.39088e-12 0)
(580 -2.30422e-12 0)
(580 -2.49605e-12 0)
(580 -2.56308e-12 0)
(580 -2.49557e-12 0)
(580 -2.59391e-12 0)
(580 -2.87327e-12 0)
(580 -3.08449e-12 0)
(580 -3.43356e-12 0)
(580 -3.53601e-12 0)
(580 -3.39955e-12 0)
(580 -2.99347e-12 0)
(580 -2.78206e-12 0)
(580 -1.91665e-12 0)
(580 -9.304e-13 0)
(580 -6.21918e-13 0)
(580 -6.66076e-13 0)
(580 -5.08658e-13 0)
(580 -5.09007e-13 0)
(580 -4.81859e-13 0)
(580 -7.78488e-13 0)
(580 -7.39842e-13 0)
(580 -7.89123e-13 0)
(580 -1.05068e-12 0)
(580 -7.68628e-13 0)
(580 -4.97652e-13 0)
(580 -1.05595e-12 0)
(580 -1.53544e-12 0)
(580 -6.95457e-13 0)
(580 -3.678e-13 0)
(580 -2.31813e-13 0)
(580 2.24627e-14 0)
(580 3.36838e-13 0)
(580 4.99557e-13 0)
(580 -1.51844e-14 0)
(580 -2.55331e-13 0)
(580 -2.76732e-13 0)
(580 -3.53266e-13 0)
(580 -4.46809e-13 0)
(580 -5.69793e-13 0)
(580 -6.11892e-13 0)
(580 -5.15355e-13 0)
(580 -3.91593e-13 0)
(580 -3.71964e-13 0)
(580 -3.25341e-13 0)
(580 -3.57704e-13 0)
(580 -3.5972e-13 0)
(580 -3.47368e-13 0)
(580 -3.84383e-13 0)
(580 -4.27041e-13 0)
(580 -5.26033e-13 0)
(580 -7.29618e-13 0)
(580 -7.82326e-13 0)
(580 -1.04092e-12 0)
(580 -1.14176e-12 0)
(580 -1.1217e-12 0)
(580 -1.00547e-12 0)
(580 -8.44322e-13 0)
(580 -1.44573e-12 0)
(580 -1.68957e-12 0)
(580 -1.57185e-12 0)
(580 -1.33769e-12 0)
(580 -1.28485e-12 0)
(580 -1.03186e-12 0)
(580 -5.93718e-13 0)
(580 -2.41251e-13 0)
(580 2.01316e-13 0)
(580 3.99612e-13 0)
(580 5.58317e-13 0)
(580 6.87135e-13 0)
(580 7.98989e-13 0)
(580 1.61579e-13 0)
(580 -4.48158e-15 0)
(580 -2.68992e-13 0)
(580 -6.82804e-13 0)
(580 -7.44631e-13 0)
(580 -8.00526e-13 0)
(580 -1.0516e-12 0)
(580 -1.62396e-12 0)
(580 -1.59707e-12 0)
(580 -2.01767e-12 0)
(580 -2.25365e-12 0)
(580 -2.83083e-12 0)
(580 -3.01386e-12 0)
(580 -3.12624e-12 0)
(580 -3.3354e-12 0)
(580 -3.74561e-12 0)
(580 -4.29986e-12 0)
(580 -4.43288e-12 0)
(580 -4.21937e-12 0)
(580 -3.807e-12 0)
(580 -2.7733e-12 0)
(580 -2.14955e-12 0)
(580 -2.04629e-12 0)
(580 -1.91949e-12 0)
(580 -1.7806e-12 0)
(580 -1.67285e-12 0)
(580 -1.52386e-12 0)
(580 -1.60172e-12 0)
(580 -1.69918e-12 0)
(580 -1.6812e-12 0)
(580 -1.66441e-12 0)
(580 -1.29974e-12 0)
(580 -1.09372e-12 0)
(580 -1.16847e-12 0)
(580 -1.24429e-12 0)
(580 -9.5571e-13 0)
(580 -1.01276e-12 0)
(580 -1.10395e-12 0)
(580 -1.73038e-13 0)
(580 2.98653e-13 0)
(580 4.42e-13 0)
(580 1.13226e-12 0)
(580 1.37845e-12 0)
(580 6.9158e-15 0)
(580 4.82881e-14 0)
(580 -1.16455e-14 0)
(580 3.88105e-14 0)
(580 6.76155e-14 0)
(580 7.99745e-14 0)
(580 8.41896e-14 0)
(580 9.00355e-14 0)
(580 1.11871e-13 0)
(580 2.00002e-13 0)
(580 2.35813e-13 0)
(580 1.26821e-13 0)
(580 1.5548e-13 0)
(580 7.37492e-14 0)
(580 -1.60074e-14 0)
(580 -1.46916e-13 0)
(580 -2.00328e-13 0)
(580 -2.9994e-13 0)
(580 -5.09341e-13 0)
(580 -5.98266e-13 0)
(580 -8.50983e-13 0)
(580 -1.03951e-12 0)
(580 -1.14309e-12 0)
(580 -1.3752e-12 0)
(580 -1.36569e-12 0)
(580 -1.3052e-12 0)
(580 -1.05364e-12 0)
(580 -8.2346e-13 0)
(580 -4.07157e-13 0)
(580 -3.3805e-13 0)
(580 -4.56396e-13 0)
(580 -4.09012e-13 0)
(580 -4.75915e-13 0)
(580 -4.78431e-13 0)
(580 -1.36402e-13 0)
(580 3.89345e-13 0)
(580 7.70239e-13 0)
(580 3.27141e-13 0)
(580 1.43344e-13 0)
(580 8.91547e-14 0)
(580 -4.81543e-13 0)
(580 -9.71407e-13 0)
(580 -1.40175e-12 0)
(580 -1.44525e-12 0)
(580 -1.6153e-12 0)
(580 -1.69247e-12 0)
(580 -1.58039e-12 0)
(580 -1.53741e-12 0)
(580 -1.79252e-12 0)
(580 -2.14849e-12 0)
(580 -2.1764e-12 0)
(580 -2.57447e-12 0)
(580 -2.92113e-12 0)
(580 -2.98218e-12 0)
(580 -3.18308e-12 0)
(580 -3.70937e-12 0)
(580 -3.25845e-12 0)
(580 -2.91091e-12 0)
(580 -2.41687e-12 0)
(580 -2.18286e-12 0)
(580 -2.07604e-12 0)
(580 -1.99364e-12 0)
(580 -2.11751e-12 0)
(580 -2.13779e-12 0)
(580 -2.11608e-12 0)
(580 -2.1293e-12 0)
(580 -2.15277e-12 0)
(580 -2.07281e-12 0)
(580 -2.01531e-12 0)
(580 -2.00948e-12 0)
(580 -2.1765e-12 0)
(580 -2.13218e-12 0)
(580 -2.05983e-12 0)
(580 -2.00286e-12 0)
(580 -1.01373e-12 0)
(580 -8.16961e-13 0)
(580 -7.04665e-13 0)
(580 -4.45073e-13 0)
(580 -4.4506e-13 0)
(580 -1.53952e-13 0)
(580 3.22021e-14 0)
(580 1.32717e-13 0)
(580 2.73737e-13 0)
(580 4.95945e-13 0)
(580 8.20871e-13 0)
(580 9.04037e-13 0)
(580 1.01674e-12 0)
(580 9.63601e-13 0)
(580 8.4705e-13 0)
(580 8.05373e-13 0)
(580 6.09222e-13 0)
(580 5.13884e-13 0)
(580 4.47505e-13 0)
(580 5.02863e-13 0)
(580 5.74194e-13 0)
(580 5.28758e-13 0)
(580 4.66455e-13 0)
(580 4.18124e-13 0)
(580 2.94967e-13 0)
(580 1.10014e-13 0)
(580 1.0556e-14 0)
(580 -1.35334e-13 0)
(580 -4.30004e-13 0)
(580 -3.45865e-13 0)
(580 -2.16873e-13 0)
(580 -7.86663e-14 0)
(580 5.73363e-14 0)
(580 1.60545e-13 0)
(580 3.44618e-13 0)
(580 4.60213e-13 0)
(580 5.16048e-13 0)
(580 2.80482e-13 0)
(580 -1.00991e-13 0)
(580 -3.21857e-13 0)
(580 -3.30913e-13 0)
(580 7.29126e-13 0)
(580 8.82169e-13 0)
(580 8.30309e-13 0)
(580 5.43256e-13 0)
(580 2.92245e-13 0)
(580 -5.18287e-14 0)
(580 -8.01616e-13 0)
(580 -1.09644e-12 0)
(580 -1.20855e-12 0)
(580 -1.39289e-12 0)
(580 -1.34311e-12 0)
(580 -9.43557e-13 0)
(580 -8.86677e-13 0)
(580 -1.09378e-12 0)
(580 -1.27267e-12 0)
(580 -1.24419e-12 0)
(580 -1.34639e-12 0)
(580 -1.48936e-12 0)
(580 -1.67408e-12 0)
(580 -2.2261e-12 0)
(580 -2.82936e-12 0)
(580 -2.41734e-12 0)
(580 -2.20275e-12 0)
(580 -1.93942e-12 0)
(580 -1.83699e-12 0)
(580 -1.93725e-12 0)
(580 -2.03684e-12 0)
(580 -2.0983e-12 0)
(580 -1.99816e-12 0)
(580 -1.90146e-12 0)
(580 -1.79599e-12 0)
(580 -1.76718e-12 0)
(580 -1.82125e-12 0)
(580 -2.02827e-12 0)
(580 -2.15586e-12 0)
(580 -2.31224e-12 0)
(580 -2.48448e-12 0)
(580 -2.71042e-12 0)
(580 -2.99837e-12 0)
(580 -3.11584e-12 0)
(580 -2.37019e-12 0)
(580 -2.25901e-12 0)
(580 -1.88186e-12 0)
(580 -1.81948e-12 0)
(580 -1.72093e-12 0)
(580 1.59187e-14 0)
(580 5.24063e-14 0)
(580 2.32823e-13 0)
(580 3.5388e-13 0)
(580 3.40724e-13 0)
(580 3.6214e-13 0)
(580 3.31603e-13 0)
(580 3.17188e-13 0)
(580 2.39397e-13 0)
(580 1.83234e-13 0)
(580 7.86079e-14 0)
(580 7.40094e-14 0)
(580 1.86316e-14 0)
(580 -2.05749e-14 0)
(580 1.44909e-14 0)
(580 -5.06392e-14 0)
(580 -1.30434e-13 0)
(580 -1.39719e-13 0)
(580 -2.23532e-13 0)
(580 -2.46886e-13 0)
(580 -4.37661e-14 0)
(580 4.54377e-14 0)
(580 2.47803e-13 0)
(580 4.27272e-13 0)
(580 3.74301e-13 0)
(580 -2.77446e-14 0)
(580 -4.87025e-13 0)
(580 -6.05637e-13 0)
(580 -6.21463e-13 0)
(580 -5.16799e-13 0)
(580 -4.77957e-13 0)
(580 -3.44333e-13 0)
(580 1.57778e-13 0)
(580 8.5595e-13 0)
(580 1.06991e-12 0)
(580 9.7388e-13 0)
(580 8.37565e-13 0)
(580 4.28849e-13 0)
(580 -7.25628e-15 0)
(580 -3.08775e-13 0)
(580 -4.64047e-13 0)
(580 -7.51957e-13 0)
(580 -7.4226e-13 0)
(580 -7.49443e-13 0)
(580 -9.13581e-13 0)
(580 -9.16881e-13 0)
(580 -9.06571e-13 0)
(580 -9.1522e-13 0)
(580 -8.37254e-13 0)
(580 -8.17755e-13 0)
(580 -8.48479e-13 0)
(580 -9.08197e-13 0)
(580 -7.4234e-13 0)
(580 -6.99146e-13 0)
(580 -7.02316e-13 0)
(580 -9.6991e-13 0)
(580 -1.01799e-12 0)
(580 -1.30277e-12 0)
(580 -1.37479e-12 0)
(580 -1.44848e-12 0)
(580 -1.63831e-12 0)
(580 -1.83326e-12 0)
(580 -1.90715e-12 0)
(580 -2.03315e-12 0)
(580 -1.97026e-12 0)
(580 -1.77627e-12 0)
(580 -1.54466e-12 0)
(580 -1.96823e-12 0)
(580 -2.62944e-12 0)
(580 -2.9816e-12 0)
(580 -3.32198e-12 0)
(580 -3.66235e-12 0)
(580 -4.23071e-12 0)
(580 -4.59057e-12 0)
(580 -4.44984e-12 0)
(580 -4.13216e-12 0)
(580 -3.82577e-12 0)
(580 -3.44925e-12 0)
(580 -3.01317e-12 0)
(580 -2.62966e-12 0)
(580 -3.88132e-14 0)
(580 -4.41586e-14 0)
(580 -1.23536e-13 0)
(580 -2.17078e-13 0)
(580 -4.14667e-13 0)
(580 -5.07822e-13 0)
(580 -6.39525e-13 0)
(580 -7.64598e-13 0)
(580 -8.27719e-13 0)
(580 -9.65278e-13 0)
(580 -8.81506e-13 0)
(580 -6.92464e-13 0)
(580 -5.39443e-13 0)
(580 -4.85323e-13 0)
(580 -4.29724e-13 0)
(580 -4.16131e-13 0)
(580 -4.70326e-13 0)
(580 -4.41851e-13 0)
(580 -3.29913e-13 0)
(580 -5.48835e-14 0)
(580 5.5981e-14 0)
(580 1.92185e-13 0)
(580 3.13212e-13 0)
(580 1.79488e-13 0)
(580 2.76302e-14 0)
(580 -9.84792e-14 0)
(580 -1.83164e-13 0)
(580 -2.55259e-13 0)
(580 -2.02623e-13 0)
(580 -1.51069e-13 0)
(580 5.74011e-15 0)
(580 -8.71221e-14 0)
(580 4.31869e-13 0)
(580 6.07219e-13 0)
(580 4.76882e-13 0)
(580 1.08405e-13 0)
(580 -1.75477e-13 0)
(580 -5.4882e-13 0)
(580 -9.60117e-13 0)
(580 -1.22624e-12 0)
(580 -1.27086e-12 0)
(580 -1.39513e-12 0)
(580 -1.46512e-12 0)
(580 -1.42091e-12 0)
(580 -1.33588e-12 0)
(580 -1.38495e-12 0)
(580 -1.574e-12 0)
(580 -1.47434e-12 0)
(580 -9.86845e-13 0)
(580 -4.66843e-13 0)
(580 -3.01892e-13 0)
(580 -3.7289e-13 0)
(580 -5.86207e-14 0)
(580 5.62959e-13 0)
(580 1.0987e-12 0)
(580 1.4444e-12 0)
(580 9.50033e-13 0)
(580 1.40356e-13 0)
(580 -3.3997e-13 0)
(580 -7.08294e-13 0)
(580 -1.06304e-12 0)
(580 -1.36441e-12 0)
(580 -1.67881e-12 0)
(580 -2.07284e-12 0)
(580 -2.55476e-12 0)
(580 -2.63531e-12 0)
(580 -2.92649e-12 0)
(580 -3.11222e-12 0)
(580 -3.40441e-12 0)
(580 -3.55159e-12 0)
(580 -3.92943e-12 0)
(580 -4.41413e-12 0)
(580 -4.83972e-12 0)
(580 -4.87651e-12 0)
(580 -4.90653e-12 0)
(580 -4.6186e-12 0)
(580 -4.62224e-12 0)
(580 -4.51571e-12 0)
(580 -4.43321e-12 0)
(580 -4.09019e-12 0)
(580 -4.43433e-15 0)
(580 -5.55971e-14 0)
(580 -1.31681e-13 0)
(580 -2.1365e-13 0)
(580 -2.80589e-13 0)
(580 -2.60549e-13 0)
(580 -2.71837e-13 0)
(580 -2.50839e-13 0)
(580 -2.89314e-13 0)
(580 -3.08139e-13 0)
(580 -3.4516e-13 0)
(580 -4.53377e-13 0)
(580 -4.64568e-13 0)
(580 -4.09315e-13 0)
(580 -5.18509e-13 0)
(580 -5.20656e-13 0)
(580 -4.50198e-13 0)
(580 -4.18828e-13 0)
(580 -4.52517e-13 0)
(580 -5.06194e-13 0)
(580 -5.74109e-13 0)
(580 -6.13887e-13 0)
(580 -4.2521e-13 0)
(580 -3.33818e-13 0)
(580 -9.14997e-14 0)
(580 9.01524e-14 0)
(580 7.64589e-13 0)
(580 9.90728e-13 0)
(580 1.12581e-12 0)
(580 1.25583e-12 0)
(580 1.33344e-12 0)
(580 1.38197e-12 0)
(580 1.06997e-12 0)
(580 3.81222e-13 0)
(580 -9.72193e-14 0)
(580 -4.27002e-13 0)
(580 -4.39497e-13 0)
(580 -5.34713e-13 0)
(580 -6.01401e-13 0)
(580 -6.90915e-13 0)
(580 -6.06015e-13 0)
(580 -5.72431e-13 0)
(580 -7.02278e-13 0)
(580 -8.16246e-13 0)
(580 -9.93717e-13 0)
(580 -1.16073e-12 0)
(580 -1.35769e-12 0)
(580 -1.38762e-12 0)
(580 -1.34626e-12 0)
(580 -1.24531e-12 0)
(580 -7.89559e-13 0)
(580 2.97925e-13 0)
(580 5.18243e-13 0)
(580 1.08499e-12 0)
(580 1.28645e-12 0)
(580 1.61785e-12 0)
(580 1.48743e-12 0)
(580 1.08368e-12 0)
(580 4.74809e-13 0)
(580 -2.70224e-13 0)
(580 -1.03032e-12 0)
(580 -1.6883e-12 0)
(580 -2.31152e-12 0)
(580 -2.80886e-12 0)
(580 -3.4566e-12 0)
(580 -3.88351e-12 0)
(580 -4.48819e-12 0)
(580 -4.47761e-12 0)
(580 -4.48412e-12 0)
(580 -4.48389e-12 0)
(580 -4.79045e-12 0)
(580 -4.80382e-12 0)
(580 -5.12828e-12 0)
(580 -5.54396e-12 0)
(580 -5.73104e-12 0)
(580 -5.90226e-12 0)
(580 -6.15017e-12 0)
(580 -6.52126e-12 0)
(580 -6.76282e-12 0)
(580 -6.77007e-12 0)
(580 -2.07983e-14 0)
(580 -1.82485e-14 0)
(580 -3.18013e-14 0)
(580 -4.50627e-14 0)
(580 -7.81707e-14 0)
(580 -1.2739e-13 0)
(580 -1.59917e-13 0)
(580 -1.57238e-13 0)
(580 -1.72498e-13 0)
(580 1.20705e-13 0)
(580 1.51343e-13 0)
(580 -3.92753e-14 0)
(580 -2.48086e-13 0)
(580 -3.61673e-13 0)
(580 -5.91036e-13 0)
(580 -4.14264e-13 0)
(580 -2.76811e-13 0)
(580 -2.40653e-13 0)
(580 -3.31432e-13 0)
(580 -4.0266e-13 0)
(580 -3.85517e-13 0)
(580 -3.73278e-13 0)
(580 -3.129e-13 0)
(580 -1.03871e-13 0)
(580 3.23667e-13 0)
(580 6.76259e-13 0)
(580 9.0263e-13 0)
(580 1.07641e-12 0)
(580 1.0044e-12 0)
(580 9.40628e-13 0)
(580 8.86176e-13 0)
(580 7.69753e-13 0)
(580 6.91337e-13 0)
(580 3.79586e-13 0)
(580 2.45114e-13 0)
(580 -1.1586e-13 0)
(580 -2.19076e-13 0)
(580 -4.08648e-13 0)
(580 -7.04962e-13 0)
(580 -8.17767e-13 0)
(580 -6.27678e-13 0)
(580 -6.70507e-13 0)
(580 -6.00867e-13 0)
(580 -7.3412e-13 0)
(580 -9.6001e-13 0)
(580 -9.61162e-13 0)
(580 -1.14767e-12 0)
(580 -1.05277e-12 0)
(580 -1.07304e-12 0)
(580 -9.04043e-13 0)
(580 -7.7424e-13 0)
(580 -4.85899e-13 0)
(580 -3.313e-13 0)
(580 -6.96877e-14 0)
(580 -6.72162e-14 0)
(580 2.447e-13 0)
(580 1.76801e-13 0)
(580 1.69615e-14 0)
(580 -2.39117e-13 0)
(580 -4.58129e-13 0)
(580 -7.64583e-13 0)
(580 -1.24902e-12 0)
(580 -1.4954e-12 0)
(580 -1.55167e-12 0)
(580 -1.7854e-12 0)
(580 -2.08403e-12 0)
(580 -2.16618e-12 0)
(580 -2.30148e-12 0)
(580 -2.57299e-12 0)
(580 -2.72797e-12 0)
(580 -2.8596e-12 0)
(580 -2.87385e-12 0)
(580 -3.08448e-12 0)
(580 -3.4248e-12 0)
(580 -3.81165e-12 0)
(580 -4.3253e-12 0)
(580 -4.48916e-12 0)
(580 -4.652e-12 0)
(580 -4.99991e-12 0)
(580 -5.21282e-12 0)
(580 -1.89965e-13 0)
(580 -3.55488e-13 0)
(580 -4.64382e-13 0)
(580 -8.08328e-13 0)
(580 -7.54718e-13 0)
(580 -7.21082e-13 0)
(580 -7.37614e-13 0)
(580 -7.29087e-13 0)
(580 -7.22046e-13 0)
(580 -5.32447e-13 0)
(580 -4.30558e-13 0)
(580 -3.46472e-13 0)
(580 -3.12339e-13 0)
(580 -3.15596e-13 0)
(580 -2.83722e-13 0)
(580 -5.51371e-14 0)
(580 -5.07747e-14 0)
(580 2.82702e-14 0)
(580 3.1114e-13 0)
(580 5.21644e-13 0)
(580 6.26292e-13 0)
(580 6.70971e-13 0)
(580 5.6522e-13 0)
(580 5.47877e-13 0)
(580 3.59836e-13 0)
(580 1.25089e-13 0)
(580 1.84376e-13 0)
(580 -5.82549e-14 0)
(580 -2.2357e-13 0)
(580 -4.36609e-13 0)
(580 -5.49709e-13 0)
(580 -5.96797e-13 0)
(580 -5.05629e-13 0)
(580 -1.99825e-13 0)
(580 -1.10176e-13 0)
(580 -1.95871e-13 0)
(580 -2.46786e-13 0)
(580 -2.93234e-13 0)
(580 -3.78899e-13 0)
(580 -2.11573e-13 0)
(580 -5.6444e-13 0)
(580 -6.00848e-13 0)
(580 -5.41996e-13 0)
(580 -6.09149e-13 0)
(580 -7.09419e-13 0)
(580 -7.57686e-13 0)
(580 -7.75952e-13 0)
(580 -8.18458e-13 0)
(580 -8.29359e-13 0)
(580 -1.00118e-12 0)
(580 -1.13749e-12 0)
(580 -1.18648e-12 0)
(580 -1.322e-12 0)
(580 -1.54837e-12 0)
(580 -1.89402e-12 0)
(580 -2.14753e-12 0)
(580 -2.22255e-12 0)
(580 -2.40295e-12 0)
(580 -2.50457e-12 0)
(580 -2.36694e-12 0)
(580 -2.29312e-12 0)
(580 -2.21844e-12 0)
(580 -2.10031e-12 0)
(580 -1.73859e-12 0)
(580 -1.4937e-12 0)
(580 -1.44896e-12 0)
(580 -1.48983e-12 0)
(580 -1.63789e-12 0)
(580 -1.76383e-12 0)
(580 -1.97207e-12 0)
(580 -1.9966e-12 0)
(580 -2.00065e-12 0)
(580 -2.10438e-12 0)
(580 -2.13284e-12 0)
(580 -2.1975e-12 0)
(580 -2.47658e-12 0)
(580 -2.86702e-12 0)
(580 -2.95531e-12 0)
(580 -3.13158e-12 0)
(580 -3.51649e-12 0)
(580 3.21302e-15 0)
(580 -2.9354e-14 0)
(580 -1.73306e-13 0)
(580 -2.38423e-13 0)
(580 -3.46937e-13 0)
(580 -5.02376e-13 0)
(580 -5.36794e-13 0)
(580 -4.65853e-13 0)