/*--------------------------------*- C++ -*----------------------------------*\
| =========                 |                                                 |
| \\      /  F ield         | OpenFOAM: The Open Source CFD Toolbox           |
|  \\    /   O peration     | Version:  2306                                  |
|   \\  /    A nd           | Website:  www.openfoam.com                      |
|    \\/     M anipulation  |                                                 |
\*---------------------------------------------------------------------------*/
FoamFile
{
    version     2.0;
    format      ascii;
    arch        "LSB;label=32;scalar=64";
    class       volVectorField;
    location    "5e-05";
    object      U;
}
// * * * * * * * * * * * * * * * * * * * * * * * * * * * * * * * * * * * * * //

dimensions      [0 1 -1 0 0 0 0];

internalField   nonuniform List<vector> 
8941
(
(580 -1.96946e-13 0)
(580 -1.8419e-13 0)
(580 -2.78732e-13 0)
(580 -1.29522e-13 0)
(580 -2.07907e-13 0)
(580 -2.18417e-13 0)
(580 -1.8097e-13 0)
(580 -3.42394e-13 0)
(580 -1.72628e-13 0)
(580 2.38914e-14 0)
(580 1.09519e-13 0)
(580 1.5534e-13 0)
(580 6.02363e-14 0)
(580 -1.06539e-13 0)
(580 -1.7708e-13 0)
(580 -4.05263e-13 0)
(580 -7.46099e-13 0)
(580 -6.65355e-13 0)
(580 -3.80269e-13 0)
(580 -3.22469e-13 0)
(580 -1.36157e-13 0)
(580 -2.08971e-14 0)
(580 1.53306e-14 0)
(580 2.58873e-13 0)
(580 4.66061e-13 0)
(580 7.38038e-13 0)
(580 7.065e-13 0)
(580 3.63582e-13 0)
(580 4.35932e-13 0)
(580 6.46011e-13 0)
(580 6.22973e-13 0)
(580 4.2379e-13 0)
(580 3.79412e-13 0)
(580 4.36842e-14 0)
(580 -2.72647e-13 0)
(580 -1.04543e-13 0)
(580 3.63738e-13 0)
(580 3.11692e-13 0)
(580 3.10265e-13 0)
(580 3.33414e-13 0)
(580 7.68225e-14 0)
(580 7.63469e-14 0)
(580 6.42863e-13 0)
(580 5.20999e-13 0)
(580 2.79903e-14 0)
(580 -8.02716e-14 0)
(580 -4.12465e-13 0)
(580 -9.19211e-14 0)
(580 -3.96043e-14 0)
(580 2.6408e-13 0)
(580 3.67982e-13 0)
(580 3.10123e-13 0)
(580 2.04713e-13 0)
(580 6.54662e-13 0)
(580 8.51136e-13 0)
(580 6.37156e-13 0)
(580 7.043e-13 0)
(580 7.67671e-13 0)
(580 7.91503e-13 0)
(580 6.48761e-13 0)
(580 2.84425e-13 0)
(580 2.83566e-13 0)
(580 1.13861e-13 0)
(580 1.60626e-13 0)
(580 2.47509e-13 0)
(580 4.16873e-15 0)
(580 -4.45785e-14 0)
(580 -3.90812e-13 0)
(580 1.43995e-13 0)
(580 5.26749e-13 0)
(580 5.39236e-13 0)
(580 6.68795e-13 0)
(580 6.7627e-13 0)
(580 8.73946e-13 0)
(580 5.77772e-13 0)
(580 1.77888e-13 0)
(580 2.39577e-13 0)
(580 3.11123e-13 0)
(580 2.02193e-13 0)
(580 3.77269e-13 0)
(580 -9.82149e-14 0)
(580 -7.78658e-14 0)
(580 -1.43233e-13 0)
(580 -1.28798e-13 0)
(580 1.08829e-13 0)
(580 4.54276e-14 0)
(580 1.22562e-13 0)
(580 -1.41141e-14 0)
(580 1.40721e-13 0)
(580 2.13309e-13 0)
(580 4.16587e-13 0)
(580 5.16311e-13 0)
(580 1.8452e-13 0)
(580 4.09235e-14 0)
(580 -1.25102e-13 0)
(580 -7.99928e-13 0)
(580 -1.06041e-12 0)
(580 -7.21745e-13 0)
(580 -3.22824e-13 0)
(580 -1.86691e-13 0)
(580 -1.05398e-13 0)
(580 3.8813e-13 0)
(580 5.81068e-13 0)
(580 1.1516e-12 0)
(580 1.23126e-12 0)
(580 1.18579e-12 0)
(580 9.19213e-13 0)
(580 3.93389e-13 0)
(580 4.59817e-13 0)
(580 7.27361e-13 0)
(580 7.77544e-13 0)
(580 4.52197e-13 0)
(580 4.01888e-13 0)
(580 1.62158e-13 0)
(580 -9.30426e-14 0)
(580 5.26704e-14 0)
(580 1.52025e-13 0)
(580 2.22471e-14 0)
(580 -3.82073e-14 0)
(580 3.24041e-14 0)
(580 -1.31986e-13 0)
(580 7.65464e-14 0)
(580 2.31077e-13 0)
(580 2.79314e-13 0)
(580 1.01303e-13 0)
(580 -1.84072e-13 0)
(580 -1.14433e-13 0)
(580 1.06946e-13 0)
(580 3.3345e-13 0)
(580 5.90422e-13 0)
(580 8.21085e-13 0)
(580 8.57608e-13 0)
(580 5.62782e-13 0)
(580 7.52238e-13 0)
(580 7.44822e-13 0)
(580 7.21539e-13 0)
(580 7.89094e-13 0)
(580 7.59109e-13 0)
(580 8.85416e-13 0)
(580 6.24409e-13 0)
(580 3.37497e-14 0)
(580 1.47402e-13 0)
(580 8.84328e-14 0)
(580 1.31498e-13 0)
(580 1.21398e-13 0)
(580 -1.41791e-13 0)
(580 -5.01936e-13 0)
(580 -3.362e-13 0)
(580 2.66882e-13 0)
(580 1.53234e-12 0)
(580 1.50389e-12 0)
(580 1.54591e-12 0)
(580 1.39302e-12 0)
(580 1.45884e-12 0)
(580 1.22651e-12 0)
(580 3.31853e-13 0)
(580 4.70011e-13 0)
(580 7.33738e-13 0)
(580 4.34492e-13 0)
(580 4.04503e-13 0)
(580 1.8164e-13 0)
(580 1.31359e-13 0)
(580 1.35605e-13 0)
(580 -3.39472e-14 0)
(580 1.51766e-13 0)
(580 1.49527e-13 0)
(580 2.28547e-13 0)
(580 6.3525e-13 0)
(580 5.38614e-13 0)
(580 3.92122e-13 0)
(580 2.82935e-13 0)
(580 2.28377e-13 0)
(580 -1.99331e-13 0)
(580 -4.41242e-13 0)
(580 -5.3431e-13 0)
(580 -9.58714e-13 0)
(580 -8.2951e-13 0)
(580 -7.26975e-13 0)
(580 -8.79126e-13 0)
(580 -9.25957e-13 0)
(580 -3.91484e-13 0)
(580 -3.26844e-13 0)
(580 1.93714e-13 0)
(580 6.19291e-13 0)
(580 5.95821e-13 0)
(580 6.62111e-13 0)
(580 3.65661e-13 0)
(580 2.84682e-13 0)
(580 4.69045e-13 0)
(580 5.27604e-13 0)
(580 6.12852e-13 0)
(580 5.93469e-13 0)
(580 6.96581e-13 0)
(580 4.53828e-13 0)
(580 1.25616e-13 0)
(580 -4.79557e-14 0)
(580 -4.82414e-13 0)
(580 -5.49421e-13 0)
(580 -1.10954e-12 0)
(580 -8.96901e-13 0)
(580 -6.60538e-13 0)
(580 -1.44721e-13 0)
(580 -9.36573e-14 0)
(580 -1.0984e-13 0)
(580 -2.30891e-13 0)
(580 -2.27649e-13 0)
(580 -1.23447e-14 0)
(580 6.121e-14 0)
(580 4.07632e-13 0)
(580 4.9419e-13 0)
(580 4.8265e-13 0)
(580 5.22637e-13 0)
(580 4.17048e-13 0)
(580 3.4758e-14 0)
(580 -1.09743e-13 0)
(580 5.93946e-13 0)
(580 6.52305e-13 0)
(580 3.42568e-13 0)
(580 4.68616e-13 0)
(580 5.28598e-13 0)
(580 4.35472e-13 0)
(580 5.72436e-14 0)
(580 -4.07403e-14 0)
(580 -1.68453e-13 0)
(580 -5.44556e-13 0)
(580 -6.07623e-13 0)
(580 -2.10061e-13 0)
(580 -1.58067e-13 0)
(580 5.43918e-13 0)
(580 9.45502e-13 0)
(580 1.28798e-12 0)
(580 1.45953e-12 0)
(580 1.63405e-12 0)
(580 1.32864e-12 0)
(580 1.10613e-12 0)
(580 9.66535e-13 0)
(580 9.24937e-13 0)
(580 9.31648e-13 0)
(580 9.8688e-13 0)
(580 1.12411e-12 0)
(580 1.37489e-13 0)
(580 1.59708e-13 0)
(580 2.03002e-13 0)
(580 4.43136e-13 0)
(580 3.00774e-13 0)
(580 2.55969e-13 0)
(580 2.05935e-13 0)
(580 2.43548e-13 0)
(580 2.4108e-13 0)
(580 -1.30107e-13 0)
(580 -3.14688e-13 0)
(580 -6.76797e-13 0)
(580 -8.94281e-13 0)
(580 -1.0355e-12 0)
(580 -1.23917e-12 0)
(580 -9.98339e-13 0)
(580 -8.4684e-13 0)
(580 -6.05838e-13 0)
(580 -6.26907e-13 0)
(580 -7.46245e-13 0)
(580 -6.30776e-13 0)
(580 -7.23077e-13 0)
(580 -6.43872e-13 0)
(580 -3.78215e-13 0)
(580 1.05953e-13 0)
(580 4.38078e-14 0)
(580 4.0054e-13 0)
(580 8.23336e-13 0)
(580 7.04715e-13 0)
(580 6.77737e-13 0)
(580 3.75859e-13 0)
(580 1.97662e-13 0)
(580 1.88821e-13 0)
(580 4.15067e-13 0)
(580 4.04875e-13 0)
(580 1.56359e-14 0)
(580 4.18221e-15 0)
(580 -2.81609e-13 0)
(580 -3.77621e-13 0)
(580 -4.9617e-13 0)
(580 -3.87964e-13 0)
(580 -2.78846e-13 0)
(580 6.14511e-14 0)
(580 -2.83358e-13 0)
(580 -4.08264e-13 0)
(580 -4.13092e-13 0)
(580 -3.54337e-13 0)
(580 -1.93091e-13 0)
(580 -1.22662e-13 0)
(580 -4.73162e-14 0)
(580 -2.61757e-14 0)
(580 -1.04958e-13 0)
(580 -1.76114e-13 0)
(580 -2.24845e-13 0)
(580 -1.57515e-14 0)
(580 -1.32961e-13 0)
(580 -7.22551e-15 0)
(580 3.07473e-13 0)
(580 5.69092e-13 0)
(580 1.09047e-12 0)
(580 8.79292e-13 0)
(580 6.34117e-13 0)
(580 5.83859e-13 0)
(580 2.55986e-13 0)
(580 2.40955e-13 0)
(580 4.35e-13 0)
(580 2.42189e-13 0)
(580 -5.89101e-14 0)
(580 1.06077e-13 0)
(580 2.4022e-13 0)
(580 1.29527e-12 0)
(580 1.42704e-12 0)
(580 1.28534e-12 0)
(580 1.48638e-12 0)
(580 1.2261e-12 0)
(580 1.56176e-12 0)
(580 1.34641e-12 0)
(580 1.20366e-12 0)
(580 1.89565e-12 0)
(580 2.32996e-12 0)
(580 -2.9937e-14 0)
(580 7.9383e-14 0)
(580 3.78828e-13 0)
(580 6.26156e-13 0)
(580 6.10277e-13 0)
(580 4.13056e-13 0)
(580 3.37789e-13 0)
(580 -5.65873e-15 0)
(580 -3.43259e-13 0)
(580 -7.00809e-13 0)
(580 -8.6836e-13 0)
(580 -8.66571e-13 0)
(580 -7.95752e-13 0)
(580 -1.11257e-12 0)
(580 -1.36347e-12 0)
(580 -1.01922e-12 0)
(580 -9.57584e-13 0)
(580 -6.96935e-13 0)
(580 -6.34386e-13 0)
(580 -4.83801e-13 0)
(580 -5.36348e-13 0)
(580 -6.52796e-13 0)
(580 -7.60666e-13 0)
(580 -9.85237e-13 0)
(580 -5.38635e-13 0)
(580 -8.36438e-13 0)
(580 -3.15269e-13 0)
(580 -8.4709e-15 0)
(580 5.10479e-14 0)
(580 1.36216e-13 0)
(580 3.47194e-13 0)
(580 7.37303e-13 0)
(580 7.58607e-13 0)
(580 8.0467e-13 0)
(580 7.11938e-13 0)
(580 5.15861e-13 0)
(580 4.78445e-13 0)
(580 1.3855e-13 0)
(580 1.97571e-13 0)
(580 2.62083e-13 0)
(580 3.95208e-13 0)
(580 5.05306e-13 0)
(580 3.55357e-13 0)
(580 3.68571e-13 0)
(580 4.64182e-13 0)
(580 3.42107e-13 0)
(580 2.16623e-13 0)
(580 1.53938e-13 0)
(580 -2.72427e-13 0)
(580 -7.22492e-13 0)
(580 -7.7327e-13 0)
(580 -7.8298e-13 0)
(580 -5.56874e-13 0)
(580 3.07846e-14 0)
(580 1.78918e-13 0)
(580 2.72926e-14 0)
(580 3.76833e-13 0)
(580 1.48307e-12 0)
(580 1.54367e-12 0)
(580 1.24677e-12 0)
(580 9.88091e-13 0)
(580 8.54713e-13 0)
(580 1.40096e-12 0)
(580 1.43721e-12 0)
(580 1.52282e-12 0)
(580 1.51036e-12 0)
(580 1.20674e-12 0)
(580 1.33484e-12 0)
(580 7.96428e-13 0)
(580 6.9297e-13 0)
(580 8.85991e-13 0)
(580 1.62673e-12 0)
(580 1.88677e-12 0)
(580 2.0502e-12 0)
(580 2.33915e-12 0)
(580 2.27786e-12 0)
(580 1.64626e-12 0)
(580 1.625e-12 0)
(580 1.64452e-12 0)
(580 1.72134e-12 0)
(580 -2.32482e-13 0)
(580 -2.10781e-13 0)
(580 2.4826e-15 0)
(580 1.96974e-13 0)
(580 2.28992e-13 0)
(580 3.36035e-13 0)
(580 2.76545e-13 0)
(580 2.02921e-13 0)
(580 -6.185e-14 0)
(580 -9.6161e-14 0)
(580 -2.6424e-13 0)
(580 -4.48835e-13 0)
(580 -7.07244e-13 0)
(580 -8.623e-13 0)
(580 -9.63396e-13 0)
(580 -1.03053e-12 0)
(580 -6.90533e-13 0)
(580 -4.56192e-13 0)
(580 -2.45098e-13 0)
(580 1.57901e-13 0)
(580 4.61524e-14 0)
(580 -1.82198e-13 0)
(580 -2.5241e-13 0)
(580 -7.66706e-13 0)
(580 -1.11558e-12 0)
(580 -1.00786e-12 0)
(580 -5.22929e-13 0)
(580 -3.59043e-13 0)
(580 3.90269e-13 0)
(580 7.35304e-13 0)
(580 8.87119e-13 0)
(580 9.72146e-13 0)
(580 1.02696e-12 0)
(580 7.55329e-13 0)
(580 2.687e-13 0)
(580 2.56081e-13 0)
(580 -2.35503e-13 0)
(580 -3.87144e-13 0)
(580 -2.72925e-13 0)
(580 -2.61064e-13 0)
(580 -2.34926e-13 0)
(580 -3.37032e-13 0)
(580 -7.53965e-13 0)
(580 -1.07171e-12 0)
(580 -9.02522e-13 0)
(580 -3.81255e-13 0)
(580 -1.69662e-13 0)
(580 -5.9045e-13 0)
(580 -9.54348e-13 0)
(580 -7.65196e-13 0)
(580 -6.44974e-13 0)
(580 -4.87642e-13 0)
(580 1.53232e-13 0)
(580 5.27458e-13 0)
(580 4.54737e-13 0)
(580 7.63776e-13 0)
(580 9.19557e-13 0)
(580 8.45453e-13 0)
(580 8.22938e-13 0)
(580 8.91231e-13 0)
(580 7.91586e-13 0)
(580 9.15883e-13 0)
(580 1.74529e-12 0)
(580 2.15868e-12 0)
(580 2.24707e-12 0)
(580 2.19449e-12 0)
(580 1.87916e-12 0)
(580 1.83291e-12 0)
(580 1.73428e-12 0)
(580 1.08112e-12 0)
(580 6.04761e-13 0)
(580 8.38933e-13 0)
(580 1.99393e-12 0)
(580 1.91407e-12 0)
(580 1.93655e-12 0)
(580 1.91157e-12 0)
(580 2.22878e-12 0)
(580 2.65544e-12 0)
(580 2.31424e-12 0)
(580 2.18909e-12 0)
(580 1.42958e-14 0)
(580 5.6061e-14 0)
(580 -2.06351e-13 0)
(580 -1.02018e-13 0)
(580 1.73369e-13 0)
(580 5.01007e-13 0)
(580 6.2882e-13 0)
(580 7.74085e-13 0)
(580 7.902e-13 0)
(580 6.41251e-13 0)
(580 2.28635e-13 0)
(580 -5.10941e-13 0)
(580 -8.52952e-13 0)
(580 -7.45776e-13 0)
(580 -8.9802e-13 0)
(580 -1.09387e-12 0)
(580 -9.37161e-13 0)
(580 -6.56215e-13 0)
(580 2.80372e-15 0)
(580 3.49142e-13 0)
(580 4.44729e-13 0)
(580 4.22345e-13 0)
(580 2.21855e-13 0)
(580 -1.81965e-13 0)
(580 -6.26387e-13 0)
(580 -9.06033e-13 0)
(580 -1.10689e-12 0)
(580 -1.0946e-12 0)
(580 -8.92743e-13 0)
(580 -7.24649e-13 0)
(580 -1.10701e-14 0)
(580 5.14237e-14 0)
(580 1.63316e-13 0)
(580 1.47795e-13 0)
(580 3.10992e-13 0)
(580 -8.93502e-14 0)
(580 -2.54329e-13 0)
(580 1.0517e-13 0)
(580 2.314e-13 0)
(580 6.18014e-14 0)
(580 -2.29477e-13 0)
(580 -6.85181e-13 0)
(580 -8.72887e-13 0)
(580 -9.71884e-13 0)
(580 -9.51732e-13 0)
(580 -8.9166e-13 0)
(580 -5.05081e-13 0)
(580 -5.72686e-13 0)
(580 -1.1075e-12 0)
(580 -1.14392e-12 0)
(580 -9.70373e-13 0)
(580 -5.66524e-13 0)
(580 -1.11509e-13 0)
(580 5.86668e-14 0)
(580 -3.23133e-14 0)
(580 7.79427e-13 0)
(580 7.18011e-13 0)
(580 2.87277e-13 0)
(580 4.02903e-13 0)
(580 1.24538e-12 0)
(580 1.24276e-12 0)
(580 1.39232e-12 0)
(580 1.99834e-12 0)
(580 2.71592e-12 0)
(580 2.79318e-12 0)
(580 2.34349e-12 0)
(580 1.89881e-12 0)
(580 1.88984e-12 0)
(580 1.85029e-12 0)
(580 1.55012e-12 0)
(580 9.41247e-13 0)
(580 8.13199e-13 0)
(580 9.22767e-13 0)
(580 1.25425e-12 0)
(580 1.36669e-12 0)
(580 1.42434e-12 0)
(580 1.72662e-12 0)
(580 2.20636e-12 0)
(580 2.57745e-12 0)
(580 2.51564e-12 0)
(580 8.84148e-14 0)
(580 2.44487e-13 0)
(580 2.00145e-13 0)
(580 -8.02147e-14 0)
(580 8.54853e-14 0)
(580 2.87822e-14 0)
(580 2.45845e-13 0)
(580 6.14814e-13 0)
(580 6.04671e-13 0)
(580 2.9819e-13 0)
(580 1.83623e-13 0)
(580 6.43947e-14 0)
(580 -1.09176e-13 0)
(580 -2.41243e-13 0)
(580 -4.34534e-13 0)
(580 -4.48139e-13 0)
(580 -7.06567e-13 0)
(580 -7.39271e-13 0)
(580 -6.1751e-13 0)
(580 -3.72544e-13 0)
(580 -6.28758e-14 0)
(580 1.53706e-13 0)
(580 5.11603e-14 0)
(580 2.4297e-14 0)
(580 -2.98145e-13 0)
(580 -1.07874e-12 0)
(580 -1.33236e-12 0)
(580 -1.34428e-12 0)
(580 -1.64158e-12 0)
(580 -1.68715e-12 0)
(580 -1.24698e-12 0)
(580 -8.86558e-13 0)
(580 -8.70003e-13 0)
(580 -4.33488e-13 0)
(580 -3.22759e-13 0)
(580 -4.1345e-13 0)
(580 -2.67472e-13 0)
(580 -1.09955e-13 0)
(580 3.53814e-15 0)
(580 -4.9346e-14 0)
(580 -6.5621e-14 0)
(580 -2.26169e-13 0)
(580 -2.03535e-13 0)
(580 -6.85509e-14 0)
(580 1.20019e-14 0)
(580 -1.59433e-13 0)
(580 -3.63622e-13 0)
(580 -7.67433e-13 0)
(580 -6.31023e-13 0)
(580 -5.73239e-13 0)
(580 -7.92604e-13 0)
(580 -6.72781e-13 0)
(580 -4.43646e-13 0)
(580 -5.5509e-13 0)
(580 7.04881e-14 0)
(580 6.94119e-13 0)
(580 6.78347e-13 0)
(580 7.33776e-13 0)
(580 8.16658e-13 0)
(580 1.38046e-12 0)
(580 1.68578e-12 0)
(580 1.55088e-12 0)
(580 1.29336e-12 0)
(580 1.60329e-12 0)
(580 2.00329e-12 0)
(580 1.83092e-12 0)
(580 1.87257e-12 0)
(580 2.05162e-12 0)
(580 1.65215e-12 0)
(580 1.59644e-12 0)
(580 1.15021e-12 0)
(580 1.12941e-12 0)
(580 1.12299e-12 0)
(580 1.55178e-12 0)
(580 1.96987e-12 0)
(580 2.086e-12 0)
(580 1.84347e-12 0)
(580 1.82007e-12 0)
(580 1.87802e-12 0)
(580 1.8262e-12 0)
(580 -2.35889e-14 0)
(580 -1.24755e-15 0)
(580 6.00016e-14 0)
(580 -6.20624e-14 0)
(580 -3.64878e-13 0)
(580 -4.71368e-13 0)
(580 -3.77581e-13 0)
(580 -1.02989e-13 0)
(580 -1.48331e-13 0)
(580 1.88315e-13 0)
(580 5.30013e-13 0)
(580 6.83346e-13 0)
(580 5.7788e-13 0)
(580 8.50058e-14 0)
(580 7.71334e-14 0)
(580 -5.82543e-14 0)
(580 -4.57237e-13 0)
(580 -8.79376e-13 0)
(580 -1.02339e-12 0)
(580 -9.89426e-13 0)
(580 -8.00636e-13 0)
(580 -7.73543e-13 0)
(580 -8.12916e-13 0)
(580 -8.67528e-13 0)
(580 -1.07349e-12 0)
(580 -1.42373e-12 0)
(580 -1.54012e-12 0)
(580 -1.4635e-12 0)
(580 -1.61308e-12 0)
(580 -1.6508e-12 0)
(580 -1.61504e-12 0)
(580 -1.8329e-12 0)
(580 -1.83236e-12 0)
(580 -1.28641e-12 0)
(580 -9.69975e-13 0)
(580 -8.98718e-13 0)
(580 -6.33233e-13 0)
(580 -6.6405e-13 0)
(580 -7.66608e-13 0)
(580 -5.77549e-13 0)
(580 -1.24493e-13 0)
(580 5.60955e-14 0)
(580 -2.71418e-14 0)
(580 4.09452e-14 0)
(580 -7.59705e-14 0)
(580 -1.68297e-13 0)
(580 -3.95811e-13 0)
(580 -3.97603e-13 0)
(580 -3.35485e-13 0)
(580 -1.39839e-13 0)
(580 -5.63824e-14 0)
(580 -1.28014e-13 0)
(580 -2.11322e-13 0)
(580 -2.51184e-13 0)
(580 2.11834e-13 0)
(580 2.92196e-13 0)
(580 5.25288e-13 0)
(580 9.40417e-13 0)
(580 1.21144e-12 0)
(580 1.22777e-12 0)
(580 1.66443e-12 0)
(580 1.82449e-12 0)
(580 1.23553e-12 0)
(580 8.63187e-13 0)
(580 9.94026e-13 0)
(580 1.18798e-12 0)
(580 1.6426e-12 0)
(580 1.72648e-12 0)
(580 1.70132e-12 0)
(580 1.80076e-12 0)
(580 1.65041e-12 0)
(580 1.72488e-12 0)
(580 1.90627e-12 0)
(580 1.80803e-12 0)
(580 1.8915e-12 0)
(580 2.4853e-12 0)
(580 2.47354e-12 0)
(580 2.24998e-12 0)
(580 2.00736e-12 0)
(580 2.00652e-12 0)
(580 1.3097e-14 0)
(580 -1.22317e-13 0)
(580 -3.03495e-13 0)
(580 -1.27151e-13 0)
(580 -3.29697e-13 0)
(580 -3.98105e-13 0)
(580 -4.34168e-13 0)
(580 -4.18753e-13 0)
(580 -5.47438e-13 0)
(580 -2.54958e-13 0)
(580 -1.15284e-13 0)
(580 -4.26398e-14 0)
(580 -2.23486e-13 0)
(580 -5.2994e-13 0)
(580 -5.26012e-13 0)
(580 -6.7154e-13 0)
(580 -4.21448e-13 0)
(580 -6.88114e-13 0)
(580 -8.60033e-13 0)
(580 -7.93785e-13 0)
(580 -1.17317e-12 0)
(580 -1.33595e-12 0)
(580 -1.0856e-12 0)
(580 -1.13018e-12 0)
(580 -1.17606e-12 0)
(580 -1.28855e-12 0)
(580 -1.15134e-12 0)
(580 -1.36153e-12 0)
(580 -1.20532e-12 0)
(580 -1.22465e-12 0)
(580 -1.7928e-12 0)
(580 -2.43634e-12 0)
(580 -2.30181e-12 0)
(580 -1.82856e-12 0)
(580 -1.28075e-12 0)
(580 -1.07332e-12 0)
(580 -9.25125e-13 0)
(580 -8.12125e-13 0)
(580 -8.50456e-13 0)
(580 -6.61836e-13 0)
(580 -4.5668e-13 0)
(580 -5.71141e-13 0)
(580 -5.7694e-13 0)
(580 -3.24477e-13 0)
(580 -3.47054e-13 0)
(580 -3.92577e-13 0)
(580 -4.55233e-13 0)
(580 5.24765e-14 0)
(580 1.9199e-13 0)
(580 4.90867e-13 0)
(580 6.95422e-13 0)
(580 6.88411e-13 0)
(580 3.94946e-13 0)
(580 2.69774e-13 0)
(580 2.18041e-13 0)
(580 5.92205e-13 0)
(580 1.01078e-12 0)
(580 1.2529e-12 0)
(580 1.34076e-12 0)
(580 1.28121e-12 0)
(580 1.27137e-12 0)
(580 1.13257e-12 0)
(580 1.02306e-12 0)
(580 9.18311e-13 0)
(580 9.15591e-13 0)
(580 1.18751e-12 0)
(580 1.33233e-12 0)
(580 1.41448e-12 0)
(580 1.77576e-12 0)
(580 1.96926e-12 0)
(580 2.08976e-12 0)
(580 2.1005e-12 0)
(580 2.04778e-12 0)
(580 2.16448e-12 0)
(580 2.17629e-12 0)
(580 2.41865e-12 0)
(580 2.71263e-12 0)
(580 2.60753e-12 0)
(580 2.4055e-12 0)
(580 2.34978e-12 0)
(580 -3.33989e-14 0)
(580 -7.56139e-14 0)
(580 -1.7507e-13 0)
(580 -1.99359e-13 0)
(580 -1.48623e-13 0)
(580 -2.57666e-13 0)
(580 -5.57027e-13 0)
(580 -7.26479e-13 0)
(580 -7.31854e-13 0)
(580 -8.49028e-13 0)
(580 -8.87388e-13 0)
(580 -7.80343e-13 0)
(580 -7.44169e-13 0)
(580 -6.43234e-13 0)
(580 -7.53352e-13 0)
(580 -6.55129e-13 0)
(580 -3.6294e-13 0)
(580 -2.93918e-13 0)
(580 -3.47246e-13 0)
(580 -6.42671e-13 0)
(580 -1.27007e-12 0)
(580 -1.42543e-12 0)
(580 -1.12536e-12 0)
(580 -1.07366e-12 0)
(580 -1.10631e-12 0)
(580 -8.28093e-13 0)
(580 -7.7702e-13 0)
(580 -9.12364e-13 0)
(580 -8.69169e-13 0)
(580 -8.89099e-13 0)
(580 -1.28769e-12 0)
(580 -1.71125e-12 0)
(580 -1.56757e-12 0)
(580 -1.22388e-12 0)
(580 -1.18752e-12 0)
(580 -1.11002e-12 0)
(580 -9.13017e-13 0)
(580 -5.59978e-13 0)
(580 -4.54777e-13 0)
(580 -6.83385e-13 0)
(580 -6.16293e-13 0)
(580 -6.10683e-13 0)
(580 -4.96238e-13 0)
(580 -2.81056e-13 0)
(580 -1.8462e-13 0)
(580 -2.28387e-13 0)
(580 -4.08577e-13 0)
(580 2.87655e-16 0)
(580 4.30138e-13 0)
(580 8.80259e-13 0)
(580 1.00222e-12 0)
(580 9.03514e-13 0)
(580 6.67915e-13 0)
(580 3.39211e-13 0)
(580 3.8542e-13 0)
(580 7.17245e-13 0)
(580 9.50347e-13 0)
(580 1.03345e-12 0)
(580 1.13803e-12 0)
(580 1.48333e-12 0)
(580 1.42622e-12 0)
(580 1.36295e-12 0)
(580 1.57859e-12 0)
(580 1.59739e-12 0)
(580 1.54018e-12 0)
(580 1.50406e-12 0)
(580 1.41237e-12 0)
(580 1.69508e-12 0)
(580 1.60374e-12 0)
(580 1.76247e-12 0)
(580 2.08228e-12 0)
(580 2.24672e-12 0)
(580 2.26773e-12 0)
(580 2.3836e-12 0)
(580 2.27646e-12 0)
(580 2.26499e-12 0)
(580 2.34337e-12 0)
(580 2.30691e-12 0)
(580 2.17622e-12 0)
(580 2.19624e-12 0)
(580 -1.29246e-13 0)
(580 4.02949e-14 0)
(580 -8.95122e-15 0)
(580 -8.7642e-14 0)
(580 -3.83985e-14 0)
(580 -4.31144e-14 0)
(580 -9.63777e-14 0)
(580 -2.78582e-13 0)
(580 -3.56207e-13 0)
(580 -3.02563e-13 0)
(580 -2.38031e-13 0)
(580 -1.84128e-13 0)
(580 -9.76458e-14 0)
(580 -6.89202e-14 0)
(580 -2.57707e-13 0)
(580 -1.77802e-13 0)
(580 -2.17134e-13 0)
(580 -1.38393e-13 0)
(580 -4.87272e-13 0)
(580 -6.93725e-13 0)
(580 -7.78215e-13 0)
(580 -9.29348e-13 0)
(580 -1.06298e-12 0)
(580 -1.22155e-12 0)
(580 -1.20983e-12 0)
(580 -9.38659e-13 0)
(580 -1.02419e-12 0)
(580 -1.19704e-12 0)
(580 -1.07471e-12 0)
(580 -7.95079e-13 0)
(580 -6.54906e-13 0)
(580 -2.32743e-13 0)
(580 -2.53132e-13 0)
(580 -3.09538e-13 0)
(580 -5.3803e-13 0)
(580 -3.59445e-13 0)
(580 -3.56473e-13 0)
(580 2.96353e-15 0)
(580 1.00049e-13 0)
(580 1.21401e-13 0)
(580 1.64707e-14 0)
(580 -7.37025e-14 0)
(580 -6.18025e-14 0)
(580 -7.5434e-14 0)
(580 6.95229e-15 0)
(580 -1.11379e-14 0)
(580 -1.57962e-13 0)
(580 -5.01924e-14 0)
(580 1.18214e-13 0)
(580 4.45307e-13 0)
(580 6.23571e-13 0)
(580 6.44065e-13 0)
(580 7.41589e-13 0)
(580 9.51268e-13 0)
(580 1.04297e-12 0)
(580 6.31988e-13 0)
(580 3.40924e-13 0)
(580 5.43894e-13 0)
(580 1.09427e-12 0)
(580 1.45186e-12 0)
(580 1.49222e-12 0)
(580 1.5535e-12 0)
(580 1.81245e-12 0)
(580 1.95227e-12 0)
(580 2.00513e-12 0)
(580 1.67069e-12 0)
(580 1.56292e-12 0)
(580 1.67425e-12 0)
(580 1.64533e-12 0)
(580 1.75059e-12 0)
(580 1.83851e-12 0)
(580 2.17746e-12 0)
(580 2.50649e-12 0)
(580 2.42072e-12 0)
(580 2.35166e-12 0)
(580 2.28954e-12 0)
(580 2.0781e-12 0)
(580 1.92425e-12 0)
(580 1.56497e-12 0)
(580 1.5293e-12 0)
(580 -3.68317e-14 0)
(580 -6.27979e-14 0)
(580 -8.36121e-15 0)
(580 -3.90527e-14 0)
(580 4.2422e-14 0)
(580 1.03491e-13 0)
(580 9.04595e-14 0)
(580 -1.41264e-13 0)
(580 -2.51315e-13 0)
(580 -2.16865e-13 0)
(580 -1.25269e-13 0)
(580 -2.24946e-13 0)
(580 3.46636e-14 0)
(580 3.8575e-14 0)
(580 1.03568e-13 0)
(580 6.90675e-14 0)
(580 -2.19895e-13 0)
(580 -3.50302e-13 0)
(580 -8.20714e-13 0)
(580 -8.71877e-13 0)
(580 -7.67021e-13 0)
(580 -4.54078e-13 0)
(580 -7.08679e-13 0)
(580 -7.75457e-13 0)
(580 -6.7821e-13 0)
(580 -7.91829e-13 0)
(580 -8.86516e-13 0)
(580 -1.05435e-12 0)
(580 -1.5729e-12 0)
(580 -1.51073e-12 0)
(580 -1.09304e-12 0)
(580 -4.92817e-13 0)
(580 -5.58071e-13 0)
(580 -4.30712e-13 0)
(580 -7.81353e-14 0)
(580 4.7007e-13 0)
(580 4.4188e-13 0)
(580 4.38108e-13 0)
(580 6.18891e-13 0)
(580 8.44357e-13 0)
(580 7.46963e-13 0)
(580 5.54962e-13 0)
(580 4.9411e-13 0)
(580 4.0692e-13 0)
(580 1.29198e-13 0)
(580 8.84946e-14 0)
(580 4.48145e-13 0)
(580 4.17944e-13 0)
(580 4.0477e-13 0)
(580 3.48358e-13 0)
(580 2.48133e-13 0)
(580 3.80421e-13 0)
(580 5.82167e-13 0)
(580 1.11646e-12 0)
(580 1.03965e-12 0)
(580 1.08719e-12 0)
(580 1.03366e-12 0)
(580 1.23624e-12 0)
(580 1.45796e-12 0)
(580 1.46979e-12 0)
(580 1.62625e-12 0)
(580 2.02235e-12 0)
(580 2.25493e-12 0)
(580 2.2393e-12 0)
(580 2.20374e-12 0)
(580 1.76212e-12 0)
(580 1.71024e-12 0)
(580 1.69287e-12 0)
(580 1.83366e-12 0)
(580 2.03904e-12 0)
(580 2.02056e-12 0)
(580 2.03932e-12 0)
(580 2.29365e-12 0)
(580 2.39159e-12 0)
(580 2.11779e-12 0)
(580 2.03147e-12 0)
(580 1.91331e-12 0)
(580 1.73386e-12 0)
(580 1.52044e-12 0)
(580 1.35973e-12 0)
(580 -5.35056e-15 0)
(580 -4.47314e-14 0)
(580 -8.14937e-14 0)
(580 -1.9553e-13 0)
(580 -2.81619e-13 0)
(580 -2.58967e-13 0)
(580 -2.04978e-13 0)
(580 -2.51129e-13 0)
(580 -3.45874e-13 0)
(580 -3.85043e-13 0)
(580 -4.81971e-13 0)
(580 -4.77688e-13 0)
(580 -3.3812e-13 0)
(580 -6.81646e-14 0)
(580 9.28218e-14 0)
(580 -7.87516e-15 0)
(580 -1.27286e-13 0)
(580 -3.36542e-13 0)
(580 -5.7806e-13 0)
(580 -7.92722e-13 0)
(580 -5.02077e-13 0)
(580 -4.23632e-13 0)
(580 -4.78598e-13 0)
(580 -4.99055e-13 0)
(580 -3.95544e-13 0)
(580 -4.80669e-13 0)
(580 -5.8727e-13 0)
(580 -5.52506e-13 0)
(580 -5.93431e-13 0)
(580 -6.92298e-13 0)
(580 -6.74778e-13 0)
(580 -5.58586e-13 0)
(580 -4.35304e-13 0)
(580 -3.6255e-13 0)
(580 8.9137e-14 0)
(580 2.97196e-13 0)
(580 4.86058e-13 0)
(580 6.49966e-13 0)
(580 4.84106e-13 0)
(580 4.31456e-13 0)
(580 4.50225e-13 0)
(580 4.3469e-13 0)
(580 4.81051e-13 0)
(580 5.83784e-13 0)
(580 5.53217e-13 0)
(580 7.79767e-13 0)
(580 1.07059e-12 0)
(580 9.82962e-13 0)
(580 9.13583e-13 0)
(580 6.93653e-13 0)
(580 3.41029e-13 0)
(580 4.41902e-13 0)
(580 1.06025e-12 0)
(580 1.2673e-12 0)
(580 1.31759e-12 0)
(580 1.47558e-12 0)
(580 1.73913e-12 0)
(580 1.77045e-12 0)
(580 1.84958e-12 0)
(580 2.03216e-12 0)
(580 2.16416e-12 0)
(580 2.46539e-12 0)
(580 2.43753e-12 0)
(580 2.27468e-12 0)
(580 2.01345e-12 0)
(580 1.90534e-12 0)
(580 1.87812e-12 0)
(580 1.86651e-12 0)
(580 1.93679e-12 0)
(580 2.05573e-12 0)
(580 2.08837e-12 0)
(580 1.91025e-12 0)
(580 1.90089e-12 0)
(580 1.93386e-12 0)
(580 1.7075e-12 0)
(580 1.53957e-12 0)
(580 1.48143e-12 0)
(580 1.38929e-12 0)
(580 1.32073e-12 0)
(580 1.1115e-12 0)
(580 1.05322e-13 0)
(580 1.08764e-13 0)
(580 1.39938e-13 0)
(580 2.42389e-14 0)
(580 -1.87453e-13 0)
(580 -2.08429e-13 0)
(580 -1.07844e-13 0)
(580 -4.29756e-15 0)
(580 -3.21746e-14 0)
(580 3.93453e-14 0)
(580 -1.35804e-13 0)
(580 1.57874e-14 0)
(580 -1.8812e-15 0)
(580 1.46554e-13 0)
(580 3.06377e-13 0)
(580 1.43665e-13 0)
(580 1.18219e-13 0)
(580 -3.4562e-14 0)
(580 -9.67211e-14 0)
(580 -6.45718e-15 0)
(580 1.73129e-13 0)
(580 2.21576e-14 0)
(580 4.41184e-14 0)
(580 -8.53491e-14 0)
(580 1.14195e-13 0)
(580 8.98855e-14 0)
(580 -8.00835e-14 0)
(580 4.5827e-14 0)
(580 1.10065e-14 0)
(580 -1.96937e-14 0)
(580 3.14022e-15 0)
(580 5.75501e-14 0)
(580 6.96927e-14 0)
(580 -1.92808e-14 0)
(580 3.83904e-14 0)
(580 -1.62863e-14 0)
(580 9.34632e-14 0)
(580 4.83935e-13 0)
(580 4.81312e-13 0)
(580 2.46272e-13 0)
(580 1.70342e-13 0)
(580 1.39351e-13 0)
(580 7.52545e-14 0)
(580 4.19054e-13 0)
(580 9.93717e-13 0)
(580 1.22902e-12 0)
(580 1.30491e-12 0)
(580 1.602e-12 0)
(580 1.53826e-12 0)
(580 1.51816e-12 0)
(580 1.47547e-12 0)
(580 1.66345e-12 0)
(580 1.71002e-12 0)
(580 1.61194e-12 0)
(580 1.58109e-12 0)
(580 1.87197e-12 0)
(580 1.94168e-12 0)
(580 2.08479e-12 0)
(580 2.26107e-12 0)
(580 2.43429e-12 0)
(580 2.73503e-12 0)
(580 2.62512e-12 0)
(580 2.38777e-12 0)
(580 1.79031e-12 0)
(580 1.47361e-12 0)
(580 2.14606e-12 0)
(580 2.14278e-12 0)
(580 2.27838e-12 0)
(580 2.30708e-12 0)
(580 2.23857e-12 0)
(580 2.17027e-12 0)
(580 2.00874e-12 0)
(580 1.72096e-12 0)
(580 1.44013e-12 0)
(580 1.25285e-12 0)
(580 6.96527e-13 0)
(580 8.06203e-13 0)
(580 1.07241e-12 0)
(580 1.0291e-12 0)
(580 8.12511e-13 0)
(580 2.15811e-14 0)
(580 -1.96656e-15 0)
(580 -1.64523e-13 0)
(580 -2.7482e-13 0)
(580 -3.79326e-13 0)
(580 -4.65143e-13 0)
(580 -3.50039e-13 0)
(580 -2.2961e-13 0)
(580 -1.38089e-13 0)
(580 -3.00542e-14 0)
(580 1.6821e-13 0)
(580 2.83118e-13 0)
(580 2.55767e-13 0)
(580 8.80047e-14 0)
(580 2.7541e-13 0)
(580 2.48294e-13 0)
(580 2.16281e-13 0)
(580 2.23519e-13 0)
(580 4.57485e-13 0)
(580 5.18241e-13 0)
(580 3.20485e-13 0)
(580 2.81252e-13 0)
(580 4.30313e-13 0)
(580 4.21499e-13 0)
(580 4.13093e-13 0)
(580 3.23785e-13 0)
(580 4.38654e-14 0)
(580 4.19586e-14 0)
(580 1.5807e-13 0)
(580 1.50145e-13 0)
(580 5.01015e-14 0)
(580 -6.93215e-14 0)
(580 -1.41537e-13 0)
(580 -2.08397e-13 0)
(580 -3.39964e-13 0)
(580 -3.61296e-13 0)
(580 -6.22085e-13 0)
(580 -5.01014e-13 0)
(580 -5.42062e-13 0)
(580 -4.07569e-13 0)
(580 -1.752e-13 0)
(580 3.67582e-13 0)
(580 7.81317e-13 0)
(580 7.78798e-13 0)
(580 1.06173e-12 0)
(580 1.24983e-12 0)
(580 1.30304e-12 0)
(580 1.64856e-12 0)
(580 1.76028e-12 0)
(580 1.75854e-12 0)
(580 2.24273e-12 0)
(580 2.10791e-12 0)
(580 2.23346e-12 0)
(580 2.24571e-12 0)
(580 2.20244e-12 0)
(580 2.05729e-12 0)
(580 2.05125e-12 0)
(580 2.0002e-12 0)
(580 2.06437e-12 0)
(580 2.05508e-12 0)
(580 2.26903e-12 0)
(580 2.35366e-12 0)
(580 2.20937e-12 0)
(580 1.78547e-12 0)
(580 1.72608e-12 0)
(580 1.90748e-12 0)
(580 2.0014e-12 0)
(580 2.15344e-12 0)
(580 2.19471e-12 0)
(580 2.07356e-12 0)
(580 1.96806e-12 0)
(580 1.7659e-12 0)
(580 1.49179e-12 0)
(580 9.30641e-13 0)
(580 5.15997e-13 0)
(580 1.98297e-13 0)
(580 2.18464e-13 0)
(580 4.43755e-13 0)
(580 4.50463e-13 0)
(580 5.29963e-13 0)
(580 -9.69029e-14 0)
(580 -3.1671e-13 0)
(580 -4.91379e-13 0)
(580 -4.65941e-13 0)
(580 -3.69271e-13 0)
(580 -4.66944e-13 0)
(580 -3.64527e-13 0)
(580 -2.7616e-13 0)
(580 -1.998e-13 0)
(580 -3.08695e-13 0)
(580 -1.10628e-14 0)
(580 1.15757e-13 0)
(580 2.84799e-13 0)
(580 3.29162e-13 0)
(580 3.14465e-13 0)
(580 4.6889e-13 0)
(580 2.65643e-13 0)
(580 2.6809e-13 0)
(580 3.218e-13 0)
(580 2.39895e-13 0)
(580 -1.14488e-13 0)
(580 -1.68739e-13 0)
(580 -9.99021e-14 0)
(580 6.54265e-14 0)
(580 8.03297e-14 0)
(580 5.57511e-14 0)
(580 -9.57545e-14 0)
(580 -2.71535e-13 0)
(580 -2.73751e-13 0)
(580 -2.96803e-13 0)
(580 -3.68214e-13 0)
(580 -5.06484e-13 0)
(580 -6.18243e-13 0)
(580 -6.88713e-13 0)
(580 -8.54149e-13 0)
(580 -8.90831e-13 0)
(580 -9.60985e-13 0)
(580 -9.54005e-13 0)
(580 -7.60429e-13 0)
(580 -5.34085e-13 0)
(580 -1.58436e-13 0)
(580 2.95801e-13 0)
(580 9.46481e-13 0)
(580 1.3141e-12 0)
(580 1.03326e-12 0)
(580 1.41506e-12 0)
(580 1.55885e-12 0)
(580 1.70016e-12 0)
(580 1.95552e-12 0)
(580 1.96873e-12 0)
(580 2.28225e-12 0)
(580 2.4755e-12 0)
(580 2.70651e-12 0)
(580 2.72918e-12 0)
(580 2.74366e-12 0)
(580 2.29719e-12 0)
(580 2.20757e-12 0)
(580 2.21573e-12 0)
(580 2.1967e-12 0)
(580 2.15881e-12 0)
(580 2.18483e-12 0)
(580 1.75991e-12 0)
(580 1.7091e-12 0)
(580 2.24522e-12 0)
(580 2.30567e-12 0)
(580 2.08709e-12 0)
(580 2.02096e-12 0)
(580 2.0603e-12 0)
(580 1.8339e-12 0)
(580 1.10773e-12 0)
(580 9.65119e-13 0)
(580 4.04496e-13 0)
(580 6.98782e-14 0)
(580 1.57417e-13 0)
(580 1.50635e-13 0)
(580 3.23802e-13 0)
(580 3.46167e-13 0)
(580 4.70608e-13 0)
(580 7.61842e-13 0)
(580 8.5771e-13 0)
(580 3.96324e-14 0)
(580 6.88593e-15 0)
(580 2.4412e-13 0)
(580 2.88823e-13 0)
(580 4.20405e-13 0)
(580 2.5187e-13 0)
(580 3.31127e-13 0)
(580 3.12363e-13 0)
(580 2.54303e-13 0)
(580 1.26937e-13 0)
(580 9.61169e-14 0)
(580 1.37709e-14 0)
(580 2.03977e-13 0)
(580 6.82847e-13 0)
(580 6.68322e-13 0)
(580 7.26739e-13 0)
(580 7.48442e-13 0)
(580 8.00402e-13 0)
(580 6.25647e-13 0)
(580 4.74733e-13 0)
(580 5.05677e-13 0)
(580 8.99811e-14 0)
(580 -1.21309e-13 0)
(580 -2.02478e-13 0)
(580 -3.01893e-13 0)
(580 -2.58707e-13 0)
(580 -1.48967e-13 0)
(580 -2.21478e-13 0)
(580 -2.87245e-13 0)
(580 -1.16175e-13 0)
(580 5.87774e-14 0)
(580 1.21592e-13 0)
(580 3.45257e-14 0)
(580 1.90345e-15 0)
(580 -2.01861e-13 0)
(580 -5.999e-13 0)
(580 -6.39926e-13 0)
(580 -4.2289e-13 0)
(580 1.5272e-13 0)
(580 7.02376e-13 0)
(580 8.65769e-13 0)
(580 1.10749e-12 0)
(580 1.07821e-12 0)
(580 1.28745e-12 0)
(580 1.42742e-12 0)
(580 1.49472e-12 0)
(580 1.88793e-12 0)
(580 2.08223e-12 0)
(580 2.28104e-12 0)
(580 2.141e-12 0)
(580 2.33437e-12 0)
(580 3.03285e-12 0)
(580 3.05847e-12 0)
(580 3.0129e-12 0)
(580 2.85499e-12 0)
(580 2.81807e-12 0)
(580 2.47674e-12 0)
(580 2.47842e-12 0)
(580 2.42694e-12 0)
(580 2.2837e-12 0)
(580 2.01172e-12 0)
(580 1.49883e-12 0)
(580 1.54719e-12 0)
(580 1.56225e-12 0)
(580 1.75388e-12 0)
(580 1.82786e-12 0)
(580 1.74674e-12 0)
(580 1.6721e-12 0)
(580 1.29972e-12 0)
(580 3.36446e-13 0)
(580 -1.72016e-13 0)
(580 -5.49906e-13 0)
(580 -5.47584e-13 0)
(580 -2.67007e-13 0)
(580 3.14435e-14 0)