/*--------------------------------*- C++ -*----------------------------------*\
| =========                 |                                                 |
| \\      /  F ield         | OpenFOAM: The Open Source CFD Toolbox           |
|  \\    /   O peration     | Version:  2306                                  |
|   \\  /    A nd           | Website:  www.openfoam.com                      |
|    \\/     M anipulation  |                                                 |
\*---------------------------------------------------------------------------*/
FoamFile
{
    version     2.0;
    format      ascii;
    arch        "LSB;label=32;scalar=64";
    class       volVectorField;
    location    "2e-05";
    object      U;
}
// * * * * * * * * * * * * * * * * * * * * * * * * * * * * * * * * * * * * * //

dimensions      [0 1 -1 0 0 0 0];

internalField   nonuniform List<vector> 
9044
(
(580 -4.45237e-13 0)
(580 -6.62468e-13 0)
(580 -8.549e-13 0)
(580 -9.32158e-13 0)
(580 -3.07432e-13 0)
(580 -4.10351e-13 0)
(580 -8.80871e-13 0)
(580 -7.04717e-13 0)
(580 -1.31123e-12 0)
(580 -1.39927e-12 0)
(580 -5.31919e-13 0)
(580 -5.24574e-13 0)
(580 1.48293e-13 0)
(580 1.43768e-13 0)
(580 4.5272e-13 0)
(580 3.56418e-13 0)
(580 -2.124e-13 0)
(580 -2.52545e-13 0)
(580 -5.79162e-13 0)
(580 -4.34689e-13 0)
(580 3.50732e-13 0)
(580 4.51073e-13 0)
(580 -1.0457e-13 0)
(580 -7.81206e-14 0)
(580 -7.8933e-13 0)
(580 -6.66772e-13 0)
(580 -2.04458e-13 0)
(580 -1.35085e-13 0)
(580 -2.03968e-13 0)
(580 -1.14106e-13 0)
(580 -8.45581e-13 0)
(580 -7.99634e-13 0)
(525.801 2.34772e-10 0)
(525.782 2.18499e-10 0)
(525.767 1.41897e-10 0)
(525.751 8.52641e-11 0)
(525.743 4.04455e-11 0)
(525.738 2.93798e-11 0)
(525.741 -9.71196e-11 0)
(525.763 -4.94108e-11 0)
(525.796 -8.21558e-12 0)
(525.842 -6.64709e-12 0)
(525.881 -5.54309e-11 0)
(525.913 -1.53083e-10 0)
(580 3.43489e-12 0)
(580 3.33272e-12 0)
(580 3.27311e-12 0)
(580 3.23758e-12 0)
(580 3.0554e-12 0)
(580 2.60076e-12 0)
(580 2.15009e-12 0)
(580 2.06493e-12 0)
(580 1.71074e-12 0)
(580 -3.64793e-13 0)
(579.998 8.73312e-12 0)
(579.994 -1.02423e-11 0)
(579.977 2.88598e-11 0)
(579.911 -7.4943e-11 0)
(579.664 1.18218e-10 0)
(578.742 6.41235e-10 0)
(575.5 -2.48872e-09 0)
(565.953 -7.61141e-10 0)
(547.828 1.002e-08 0)
(532.014 8.60442e-09 0)
(527.313 -1.16169e-09 0)
(526.755 -3.14486e-09 0)
(526.643 -2.72958e-09 0)
(526.53 -2.25898e-09 0)
(526.348 -1.77732e-09 0)
(526.095 -1.68217e-09 0)
(525.806 -1.63204e-09 0)
(525.602 -1.09279e-09 0)
(525.567 -2.3924e-10 0)
(525.589 4.20449e-10 0)
(525.581 6.52942e-10 0)
(525.578 7.80131e-10 0)
(525.574 8.29505e-10 0)
(525.563 7.12254e-10 0)
(525.541 5.67144e-10 0)
(525.523 3.66959e-10 0)
(525.519 9.71026e-11 0)
(525.534 -1.08262e-10 0)
(525.569 -2.33315e-10 0)
(525.627 -4.34943e-10 0)
(525.711 -4.64838e-10 0)
(525.83 -4.53134e-10 0)
(525.941 -4.66483e-10 0)
(526.012 -5.01399e-10 0)
(526.072 -3.06128e-10 0)
(526.096 -1.45377e-11 0)
(526.102 7.98695e-11 0)
(526.103 2.19942e-10 0)
(526.087 3.08923e-10 0)
(526.046 2.10528e-10 0)
(525.988 -1.32155e-10 0)
(525.951 -3.42747e-10 0)
(525.933 -3.68066e-10 0)
(525.908 -3.96232e-10 0)
(525.885 -3.84414e-10 0)
(525.867 -2.41154e-10 0)
(525.856 -1.73423e-10 0)
(525.84 9.40402e-11 0)
(525.801 2.05448e-10 0)
(525.782 1.94831e-10 0)
(525.767 1.35639e-10 0)
(525.751 1.00788e-10 0)
(525.743 7.79172e-11 0)
(525.738 6.42179e-11 0)
(525.741 5.80161e-11 0)
(525.763 7.15393e-11 0)
(525.796 5.45827e-11 0)
(525.842 3.48768e-11 0)
(525.881 6.95817e-12 0)
(525.913 -8.21847e-11 0)
(580 3.29291e-12 0)
(580 3.44561e-12 0)
(580 3.405e-12 0)
(580 3.3171e-12 0)
(580 3.16245e-12 0)
(580 3.16359e-12 0)
(580 2.99853e-12 0)
(580 3.38202e-12 0)
(580 1.13291e-12 0)
(580 2.89944e-12 0)
(579.998 2.39231e-12 0)
(579.994 8.02545e-12 0)
(579.977 -1.70359e-11 0)
(579.911 -9.30893e-11 0)
(579.664 2.0607e-10 0)
(578.742 7.36992e-10 0)
(575.5 -2.87196e-09 0)
(565.953 -2.20974e-10 0)
(547.828 6.54549e-09 0)
(532.014 7.17123e-09 0)
(527.313 -1.80224e-09 0)
(526.755 -3.67994e-09 0)
(526.643 -3.12962e-09 0)
(526.53 -2.51582e-09 0)
(526.348 -1.91436e-09 0)
(526.095 -1.66179e-09 0)
(525.806 -1.31185e-09 0)
(525.602 -5.29188e-10 0)
(525.567 1.71485e-10 0)
(525.589 5.78023e-10 0)
(525.581 7.55425e-10 0)
(525.578 8.44225e-10 0)
(525.574 8.04511e-10 0)
(525.563 6.70894e-10 0)
(525.541 5.33227e-10 0)
(525.523 3.72318e-10 0)
(525.519 2.31705e-10 0)
(525.534 2.13536e-10 0)
(525.569 2.20012e-10 0)
(525.627 8.21469e-11 0)
(525.711 -1.46062e-10 0)
(525.83 -2.6521e-10 0)
(525.941 -3.5595e-10 0)
(526.012 -4.57664e-10 0)
(526.072 -3.62954e-10 0)
(526.096 -1.42074e-10 0)
(526.102 -4.831e-11 0)
(526.103 1.15717e-10 0)
(526.087 2.31689e-10 0)
(526.046 2.53712e-10 0)
(525.988 2.09243e-10 0)
(525.951 1.69433e-10 0)
(525.933 1.35149e-10 0)
(525.908 1.6855e-11 0)
(525.885 -6.63993e-11 0)
(525.867 -4.7215e-11 0)
(525.856 -1.15872e-10 0)
(525.84 -1.04748e-10 0)
(525.801 -3.08382e-11 0)
(525.782 -1.46601e-11 0)
(525.767 -2.47611e-11 0)
(525.751 -1.92091e-11 0)
(525.743 1.30425e-11 0)
(525.738 6.53211e-11 0)
(525.741 1.96588e-10 0)
(525.763 2.29649e-10 0)
(525.796 1.04631e-10 0)
(525.842 4.62076e-11 0)
(525.881 5.73391e-11 0)
(525.913 -1.9288e-11 0)
(580 2.62823e-12 0)
(580 2.80251e-12 0)
(580 3.02722e-12 0)
(580 3.26262e-12 0)
(580 3.41096e-12 0)
(580 3.38265e-12 0)
(580 3.35189e-12 0)
(580 3.29349e-12 0)
(580 2.37888e-12 0)
(580 1.69401e-12 0)
(579.998 2.50409e-12 0)
(579.994 1.60279e-11 0)
(579.977 -3.98429e-11 0)
(579.911 -5.04719e-12 0)
(579.664 5.53545e-11 0)
(578.742 1.37669e-09 0)
(575.5 -5.6961e-09 0)
(565.953 4.41299e-09 0)
(547.828 9.26268e-09 0)
(532.014 1.10591e-10 0)
(527.313 -2.33721e-09 0)
(526.755 -3.05731e-09 0)
(526.643 -2.27277e-09 0)
(526.53 -1.48821e-09 0)
(526.348 -8.19771e-10 0)
(526.095 -2.77913e-10 0)
(525.806 4.23069e-10 0)
(525.602 1.23014e-09 0)
(525.567 1.33425e-09 0)
(525.589 1.09742e-09 0)
(525.581 1.02623e-09 0)
(525.578 9.76534e-10 0)
(525.574 7.61076e-10 0)
(525.563 4.94165e-10 0)
(525.541 4.25034e-10 0)
(525.523 4.19803e-10 0)
(525.519 4.29865e-10 0)
(525.534 4.70569e-10 0)
(525.569 5.539e-10 0)
(525.627 6.77442e-10 0)
(525.711 2.42461e-10 0)
(525.83 1.02111e-11 0)
(525.941 -1.52074e-10 0)
(526.012 -3.43217e-10 0)
(526.072 -4.11198e-10 0)
(526.096 -3.57224e-10 0)
(526.102 -2.7688e-10 0)
(526.103 -8.41552e-11 0)
(526.087 1.60093e-10 0)
(526.046 4.06907e-10 0)
(525.988 6.08164e-10 0)
(525.951 7.55125e-10 0)
(525.933 7.53878e-10 0)
(525.908 6.25786e-10 0)
(525.885 4.23455e-10 0)
(525.867 1.46047e-10 0)
(525.856 -1.39952e-10 0)
(525.84 -3.72423e-10 0)
(525.801 -4.52572e-10 0)
(525.782 -4.41819e-10 0)
(525.767 -3.84981e-10 0)
(525.751 -2.93658e-10 0)
(525.743 -1.16914e-10 0)
(525.738 4.47516e-12 0)
(525.741 2.54792e-10 0)
(525.763 3.3113e-10 0)
(525.796 1.30015e-10 0)
(525.842 7.167e-11 0)
(525.881 1.22821e-10 0)
(525.913 5.62916e-11 0)
(580 2.1268e-12 0)
(580 2.05453e-12 0)
(580 2.16531e-12 0)
(580 2.41082e-12 0)
(580 2.78692e-12 0)
(580 2.9601e-12 0)
(580 3.12894e-12 0)
(580 2.60659e-12 0)
(580 3.79874e-12 0)
(580 -1.6088e-12 0)
(579.998 1.06976e-11 0)
(579.994 -4.76802e-12 0)
(579.977 -7.87786e-12 0)
(579.911 1.04848e-10 0)
(579.664 -3.70985e-10 0)
(578.742 1.46029e-09 0)
(575.5 -5.01484e-09 0)
(565.953 3.80864e-09 0)
(547.828 8.82685e-09 0)
(532.014 3.86666e-09 0)
(527.313 -1.74398e-09 0)
(526.755 -2.90463e-09 0)
(526.643 -2.11191e-09 0)
(526.53 -1.29557e-09 0)
(526.348 -6.62354e-10 0)
(526.095 -7.35646e-11 0)
(525.806 6.15744e-10 0)
(525.602 1.1937e-09 0)
(525.567 1.23986e-09 0)
(525.589 8.86678e-10 0)
(525.581 7.54341e-10 0)
(525.578 6.51692e-10 0)
(525.574 3.46232e-10 0)
(525.563 3.2171e-12 0)
(525.541 -1.31572e-10 0)
(525.523 5.90191e-12 0)
(525.519 2.26531e-10 0)
(525.534 4.85656e-10 0)
(525.569 8.16949e-10 0)
(525.627 9.60409e-10 0)
(525.711 4.78108e-10 0)
(525.83 2.09919e-10 0)
(525.941 3.95907e-11 0)
(526.012 -1.82866e-10 0)
(526.072 -4.36644e-10 0)
(526.096 -5.86801e-10 0)
(526.102 -5.90221e-10 0)
(526.103 -5.27844e-10 0)
(526.087 -3.32642e-10 0)
(526.046 1.12299e-10 0)
(525.988 6.87894e-10 0)
(525.951 9.67738e-10 0)
(525.933 1.00315e-09 0)
(525.908 1.0131e-09 0)
(525.885 8.4825e-10 0)
(525.867 5.60501e-10 0)
(525.856 1.19191e-10 0)
(525.84 -5.12078e-10 0)
(525.801 -6.92794e-10 0)
(525.782 -6.61708e-10 0)
(525.767 -6.24931e-10 0)
(525.751 -5.98748e-10 0)
(525.743 -4.49318e-10 0)
(525.738 -2.17735e-10 0)
(525.741 1.54617e-10 0)
(525.763 2.93304e-10 0)
(525.796 1.03933e-10 0)
(525.842 6.2797e-11 0)
(525.881 1.37744e-10 0)
(525.913 5.86635e-11 0)
(580 2.87842e-12 0)
(580 2.79121e-12 0)
(580 2.87285e-12 0)
(580 2.97206e-12 0)
(580 2.98155e-12 0)
(580 2.79051e-12 0)
(580 2.7868e-12 0)
(580 2.75634e-12 0)
(580 3.31224e-12 0)
(580 4.1439e-12 0)
(579.998 -1.41448e-12 0)
(579.994 4.91927e-12 0)
(579.977 2.77293e-12 0)
(579.911 5.93345e-11 0)
(579.664 -2.54298e-10 0)
(578.742 -6.66557e-11 0)
(575.5 4.20228e-09 0)
(565.953 -1.03794e-08 0)
(547.828 -4.45617e-09 0)
(532.014 5.70265e-09 0)
(527.313 1.15867e-09 0)
(526.755 -4.0673e-10 0)
(526.643 -5.62515e-10 0)
(526.53 -6.45386e-10 0)
(526.348 -7.19179e-10 0)
(526.095 -6.2909e-10 0)
(525.806 -4.89149e-10 0)
(525.602 -3.40546e-10 0)
(525.567 -2.79474e-10 0)
(525.589 -3.83906e-10 0)
(525.581 -4.22815e-10 0)
(525.578 -4.50642e-10 0)
(525.574 -4.45609e-10 0)
(525.563 -4.94948e-10 0)
(525.541 -5.09334e-10 0)
(525.523 -3.10403e-10 0)
(525.519 2.20342e-11 0)
(525.534 2.61933e-10 0)
(525.569 5.28148e-10 0)
(525.627 7.6504e-10 0)
(525.711 5.5368e-10 0)
(525.83 4.00799e-10 0)
(525.941 2.78934e-10 0)
(526.012 2.96191e-11 0)
(526.072 -4.0893e-10 0)
(526.096 -7.5771e-10 0)
(526.102 -8.20324e-10 0)
(526.103 -9.19966e-10 0)
(526.087 -9.1869e-10 0)
(526.046 -4.91696e-10 0)
(525.988 3.75018e-10 0)
(525.951 9.33462e-10 0)
(525.933 1.03709e-09 0)
(525.908 1.17744e-09 0)
(525.885 1.16717e-09 0)
(525.867 1.02665e-09 0)
(525.856 6.55229e-10 0)
(525.84 -4.40067e-10 0)
(525.801 -7.80309e-10 0)
(525.782 -7.67789e-10 0)
(525.767 -7.34891e-10 0)
(525.751 -6.82243e-10 0)
(525.743 -6.09885e-10 0)
(525.738 -4.87262e-10 0)
(525.741 -1.15872e-10 0)
(525.763 -3.58615e-11 0)
(525.796 -2.41656e-11 0)
(525.842 -2.36727e-11 0)
(525.881 7.16856e-11 0)
(525.913 -6.53127e-11 0)
(580 2.5825e-12 0)
(580 2.66723e-12 0)
(580 2.85874e-12 0)
(580 3.03141e-12 0)
(580 3.11095e-12 0)
(580 3.15124e-12 0)
(580 2.84662e-12 0)
(580 2.69215e-12 0)
(580 2.18328e-12 0)
(580 7.04523e-12 0)
(579.998 -9.20398e-12 0)
(579.994 4.53219e-12 0)
(579.977 3.18347e-11 0)
(579.911 1.60254e-10 0)
(579.664 -8.89598e-10 0)
(578.742 -2.68006e-10 0)
(575.5 9.06587e-09 0)
(565.953 -1.20795e-08 0)
(547.828 -1.63159e-08 0)
(532.014 7.84262e-09 0)
(527.313 5.59176e-09 0)
(526.755 5.02762e-09 0)
(526.643 3.35327e-09 0)
(526.53 1.71935e-09 0)
(526.348 4.26306e-10 0)
(526.095 -4.20516e-10 0)
(525.806 -8.70221e-10 0)
(525.602 -1.26383e-09 0)
(525.567 -1.74365e-09 0)
(525.589 -2.20443e-09 0)
(525.581 -2.40774e-09 0)
(525.578 -2.43348e-09 0)
(525.574 -2.11505e-09 0)
(525.563 -1.59268e-09 0)
(525.541 -1.21991e-09 0)
(525.523 -7.27556e-10 0)
(525.519 -2.11919e-10 0)
(525.534 1.07974e-10 0)
(525.569 1.01489e-10 0)
(525.627 5.57295e-10 0)
(525.711 8.00725e-10 0)
(525.83 8.24036e-10 0)
(525.941 7.76009e-10 0)
(526.012 5.18089e-10 0)
(526.072 -7.01423e-11 0)
(526.096 -6.23671e-10 0)
(526.102 -7.77849e-10 0)
(526.103 -9.48667e-10 0)
(526.087 -1.09454e-09 0)
(526.046 -7.74643e-10 0)
(525.988 -6.8365e-11 0)
(525.951 4.17197e-10 0)
(525.933 5.56297e-10 0)
(525.908 7.61323e-10 0)
(525.885 1.1565e-09 0)
(525.867 1.2777e-09 0)
(525.856 6.75013e-10 0)
(525.84 -2.413e-10 0)
(525.801 -6.52465e-10 0)
(525.782 -6.76068e-10 0)
(525.767 -6.24505e-10 0)
(525.751 -6.58717e-10 0)
(525.743 -5.24224e-10 0)
(525.738 -4.46681e-10 0)
(525.741 -4.49315e-10 0)
(525.763 -3.08544e-10 0)
(525.796 -2.78988e-10 0)
(525.842 -9.70661e-11 0)
(525.881 -5.1998e-11 0)
(525.913 -2.80227e-10 0)
(580 2.09966e-12 0)
(580 2.11489e-12 0)
(580 2.33599e-12 0)
(580 2.77914e-12 0)
(580 3.10734e-12 0)
(580 3.40579e-12 0)
(580 3.13704e-12 0)
(580 2.60895e-12 0)
(580 4.04316e-12 0)
(580 5.18915e-12 0)
(579.998 -2.14169e-12 0)
(579.994 -2.67593e-11 0)
(579.977 9.79071e-11 0)
(579.911 1.43647e-10 0)
(579.664 -7.81837e-10 0)
(578.742 -2.04503e-09 0)
(575.5 1.48213e-08 0)
(565.953 -9.94747e-09 0)
(547.828 -2.76765e-08 0)
(532.014 -2.29564e-09 0)
(527.313 7.90658e-09 0)
(526.755 1.00712e-08 0)
(526.643 7.55908e-09 0)
(526.53 5.02047e-09 0)
(526.348 2.82923e-09 0)
(526.095 1.50041e-09 0)
(525.806 5.03441e-10 0)
(525.602 -9.25399e-10 0)
(525.567 -2.46257e-09 0)
(525.589 -3.41419e-09 0)
(525.581 -3.88781e-09 0)
(525.578 -4.06166e-09 0)
(525.574 -3.76911e-09 0)
(525.563 -3.00054e-09 0)
(525.541 -2.23388e-09 0)
(525.523 -1.2314e-09 0)
(525.519 -4.22284e-10 0)
(525.534 3.21076e-11 0)
(525.569 -8.59004e-11 0)
(525.627 4.23417e-10 0)
(525.711 1.04153e-09 0)
(525.83 1.22414e-09 0)
(525.941 1.25596e-09 0)
(526.012 1.01509e-09 0)
(526.072 5.44079e-10 0)
(526.096 6.73632e-11 0)
(526.102 -1.03197e-10 0)
(526.103 -4.44348e-10 0)
(526.087 -6.34402e-10 0)
(526.046 -7.15401e-10 0)
(525.988 -4.09896e-10 0)
(525.951 -1.69487e-10 0)
(525.933 -1.42301e-10 0)
(525.908 2.59795e-10 0)
(525.885 7.34892e-10 0)
(525.867 8.97678e-10 0)
(525.856 1.03052e-09 0)
(525.84 7.4913e-11 0)
(525.801 -1.89595e-10 0)
(525.782 -2.15639e-10 0)
(525.767 -2.86845e-10 0)
(525.751 -2.62455e-10 0)
(525.743 -3.40002e-10 0)
(525.738 -3.69665e-10 0)
(525.741 -5.53655e-10 0)
(525.763 -5.26054e-10 0)
(525.796 -3.25964e-10 0)
(525.842 -1.9612e-10 0)
(525.881 -2.4443e-10 0)
(525.913 -5.17285e-10 0)
(580 2.10826e-12 0)
(580 2.24295e-12 0)
(580 2.35784e-12 0)
(580 2.33507e-12 0)
(580 2.24119e-12 0)
(580 2.52527e-12 0)
(580 2.69006e-12 0)
(580 2.6584e-12 0)
(580 4.51478e-12 0)
(580 6.50022e-12 0)
(579.998 -4.66584e-12 0)
(579.994 -2.10347e-11 0)
(579.977 9.05956e-11 0)
(579.911 1.88327e-10 0)
(579.664 -6.3556e-10 0)
(578.742 -2.65725e-09 0)
(575.5 1.25626e-08 0)
(565.953 4.83472e-10 0)
(547.828 -2.9096e-08 0)
(532.014 -1.63827e-08 0)
(527.313 6.33336e-09 0)
(526.755 1.14472e-08 0)
(526.643 9.30991e-09 0)
(526.53 7.09538e-09 0)
(526.348 5.06805e-09 0)
(526.095 4.06305e-09 0)
(525.806 3.02352e-09 0)
(525.602 3.82418e-10 0)
(525.567 -2.23092e-09 0)
(525.589 -3.69601e-09 0)
(525.581 -4.30246e-09 0)
(525.578 -4.60574e-09 0)
(525.574 -4.53026e-09 0)
(525.563 -3.73469e-09 0)
(525.541 -2.6992e-09 0)
(525.523 -1.57144e-09 0)
(525.519 -7.3915e-10 0)
(525.534 -1.67249e-10 0)
(525.569 -2.03679e-10 0)
(525.627 3.92128e-10 0)
(525.711 1.05226e-09 0)
(525.83 1.27991e-09 0)
(525.941 1.41317e-09 0)
(526.012 1.40923e-09 0)
(526.072 1.01218e-09 0)
(526.096 5.76468e-10 0)
(526.102 4.38659e-10 0)
(526.103 2.04761e-10 0)
(526.087 -4.42689e-11 0)
(526.046 -1.83366e-10 0)
(525.988 -1.00605e-10 0)
(525.951 -1.42444e-10 0)
(525.933 -1.3985e-10 0)
(525.908 -9.93112e-12 0)
(525.885 1.59624e-10 0)
(525.867 5.81488e-10 0)
(525.856 3.22878e-10 0)
(525.84 4.52935e-11 0)
(525.801 2.94743e-11 0)
(525.782 3.03616e-11 0)
(525.767 1.52597e-10 0)
(525.751 1.82851e-10 0)
(525.743 5.81968e-11 0)
(525.738 -9.55325e-11 0)
(525.741 -3.08517e-10 0)
(525.763 -6.89983e-10 0)
(525.796 -4.62248e-10 0)
(525.842 -2.73476e-10 0)
(525.881 -3.46663e-10 0)
(525.913 -6.17616e-10 0)
(580 1.68281e-12 0)
(580 1.55194e-12 0)
(580 1.49397e-12 0)
(580 1.51249e-12 0)
(580 1.76917e-12 0)
(580 2.02769e-12 0)
(580 2.36668e-12 0)
(580 2.08733e-12 0)
(580 3.62924e-12 0)
(580 6.36333e-12 0)
(579.998 -6.45692e-12 0)
(579.994 -1.29465e-13 0)
(579.977 1.09413e-11 0)
(579.911 9.7026e-11 0)
(579.664 1.79418e-11 0)
(578.742 -2.06933e-09 0)
(575.5 3.58432e-09 0)
(565.953 1.36385e-08 0)
(547.828 -1.616e-08 0)
(532.014 -2.06174e-08 0)
(527.313 2.19633e-09 0)
(526.755 8.08568e-09 0)
(526.643 7.285e-09 0)
(526.53 6.24904e-09 0)
(526.348 4.90248e-09 0)
(526.095 4.39344e-09 0)
(525.806 3.07947e-09 0)
(525.602 1.13534e-09 0)
(525.567 -6.18047e-10 0)
(525.589 -1.94362e-09 0)
(525.581 -2.56035e-09 0)
(525.578 -2.97033e-09 0)
(525.574 -3.02065e-09 0)
(525.563 -2.48001e-09 0)
(525.541 -2.01116e-09 0)
(525.523 -1.43976e-09 0)
(525.519 -9.69281e-10 0)
(525.534 -2.97408e-10 0)
(525.569 1.4772e-11 0)
(525.627 6.50425e-10 0)
(525.711 8.53254e-10 0)
(525.83 9.6318e-10 0)
(525.941 9.79231e-10 0)
(526.012 1.0107e-09 0)
(526.072 9.20415e-10 0)
(526.096 7.31511e-10 0)
(526.102 6.62484e-10 0)
(526.103 4.31254e-10 0)
(526.087 2.38757e-10 0)
(526.046 1.45769e-10 0)
(525.988 -4.81429e-11 0)
(525.951 -2.0596e-10 0)
(525.933 -1.90692e-10 0)
(525.908 -3.07421e-10 0)
(525.885 -3.57041e-10 0)
(525.867 -5.03585e-10 0)
(525.856 -6.02854e-10 0)
(525.84 4.70497e-11 0)
(525.801 2.83584e-10 0)
(525.782 3.35951e-10 0)
(525.767 3.37813e-10 0)
(525.751 3.59785e-10 0)
(525.743 3.56487e-10 0)
(525.738 1.29589e-10 0)
(525.741 -2.38176e-10 0)
(525.763 -4.74816e-10 0)
(525.796 -2.98896e-10 0)
(525.842 -1.99287e-10 0)
(525.881 -3.17254e-10 0)
(525.913 -5.4504e-10 0)
(580 1.53413e-12 0)
(580 1.46682e-12 0)
(580 1.44298e-12 0)
(580 1.35318e-12 0)
(580 1.41744e-12 0)
(580 1.30521e-12 0)
(580 1.2395e-12 0)
(580 1.21947e-12 0)
(580 1.15699e-12 0)
(580 1.2881e-12 0)
(579.998 5.17568e-12 0)
(579.994 -1.73261e-11 0)
(579.977 4.7002e-11 0)
(579.911 -1.40676e-10 0)
(579.664 1.13676e-09 0)
(578.742 -1.89523e-09 0)
(575.5 -5.60504e-09 0)
(565.953 2.70179e-08 0)
(547.828 -2.35211e-09 0)
(532.014 -1.58211e-08 0)
(527.313 -3.31198e-09 0)
(526.755 -9.08157e-10 0)
(526.643 1.15655e-10 0)
(526.53 1.13257e-09 0)
(526.348 1.81772e-09 0)
(526.095 2.32465e-09 0)
(525.806 3.02792e-09 0)
(525.602 2.38105e-09 0)
(525.567 1.64992e-09 0)
(525.589 1.13907e-09 0)
(525.581 8.67005e-10 0)
(525.578 5.54322e-10 0)
(525.574 -3.49801e-12 0)
(525.563 -5.68349e-10 0)
(525.541 -8.79728e-10 0)
(525.523 -9.96084e-10 0)
(525.519 -6.62555e-10 0)
(525.534 -4.8917e-10 0)
(525.569 1.95159e-10 0)
(525.627 -1.14581e-10 0)
(525.711 -2.53988e-10 0)
(525.83 -1.47661e-10 0)
(525.941 -3.28634e-11 0)
(526.012 3.21445e-10 0)
(526.072 5.64711e-10 0)
(526.096 6.07344e-10 0)
(526.102 5.2222e-10 0)
(526.103 5.13143e-10 0)
(526.087 5.50842e-10 0)
(526.046 4.1833e-10 0)
(525.988 2.96641e-11 0)
(525.951 -2.59505e-10 0)
(525.933 -4.13263e-10 0)
(525.908 -5.75743e-10 0)
(525.885 -8.30306e-10 0)
(525.867 -1.37798e-09 0)
(525.856 -1.00196e-09 0)
(525.84 1.74714e-10 0)
(525.801 5.29743e-10 0)
(525.782 5.30804e-10 0)
(525.767 5.6282e-10 0)
(525.751 6.49913e-10 0)
(525.743 5.16417e-10 0)
(525.738 2.73108e-10 0)
(525.741 -9.12582e-11 0)
(525.763 -1.61582e-10 0)
(525.796 -1.45304e-10 0)
(525.842 -7.80589e-11 0)
(525.881 -2.00038e-10 0)
(525.913 -3.28649e-10 0)
(580 1.45174e-12 0)
(580 1.28493e-12 0)
(580 9.00238e-13 0)
(580 5.72294e-13 0)
(580 3.59948e-13 0)
(580 2.91808e-13 0)
(580 4.24606e-13 0)
(580 1.74829e-12 0)
(580 -1.4137e-12 0)
(580 3.51561e-12 0)
(579.998 -9.91603e-12 0)
(579.994 6.79922e-11 0)
(579.977 -5.71151e-11 0)
(579.911 -5.99629e-10 0)
(579.664 7.07753e-10 0)
(578.742 7.03078e-10 0)
(575.5 -5.32112e-09 0)
(565.953 -4.58769e-09 0)
(547.828 2.21351e-08 0)
(532.014 -1.60132e-08 0)
(527.313 -7.12113e-09 0)
(526.755 -5.26566e-09 0)
(526.643 -3.19806e-09 0)
(526.53 -1.19733e-09 0)
(526.348 2.48607e-10 0)
(526.095 1.22013e-09 0)
(525.806 2.79912e-09 0)
(525.602 3.9742e-09 0)
(525.567 3.7356e-09 0)
(525.589 3.63178e-09 0)
(525.581 3.60698e-09 0)
(525.578 3.62744e-09 0)
(525.574 3.20486e-09 0)
(525.563 2.0965e-09 0)
(525.541 1.4575e-09 0)
(525.523 6.66215e-10 0)
(525.519 3.02934e-10 0)
(525.534 -3.26194e-10 0)
(525.569 -1.07112e-10 0)
(525.627 -1.06736e-09 0)
(525.711 -1.42833e-09 0)
(525.83 -1.72219e-09 0)
(525.941 -1.60752e-09 0)
(526.012 -1.09387e-09 0)
(526.072 -4.44292e-10 0)
(526.096 5.75264e-12 0)
(526.102 1.49104e-10 0)
(526.103 4.12995e-10 0)
(526.087 7.29125e-10 0)
(526.046 7.37661e-10 0)
(525.988 1.95773e-10 0)
(525.951 -3.08682e-10 0)
(525.933 -4.3837e-10 0)
(525.908 -6.68894e-10 0)
(525.885 -9.45635e-10 0)
(525.867 -1.23391e-09 0)
(525.856 -1.00612e-09 0)
(525.84 1.66161e-10 0)
(525.801 5.81264e-10 0)
(525.782 5.86636e-10 0)
(525.767 5.84961e-10 0)
(525.751 6.1493e-10 0)
(525.743 4.12674e-10 0)
(525.738 3.67741e-10 0)
(525.741 2.99411e-11 0)
(525.763 -9.52296e-11 0)
(525.796 -6.237e-11 0)
(525.842 5.71442e-11 0)
(525.881 -5.06942e-12 0)
(525.913 1.14222e-11 0)
(580 6.10222e-14 0)
(580 -1.17688e-15 0)
(580 -8.38692e-14 0)
(580 -3.52421e-13 0)
(580 -6.18291e-13 0)
(580 -6.51981e-13 0)
(580 4.32316e-13 0)
(580 -2.14787e-13 0)
(580 4.26645e-12 0)
(580 -1.01991e-11 0)
(579.998 1.99433e-11 0)
(579.994 2.88109e-11 0)
(579.977 -2.58744e-10 0)
(579.911 6.5591e-10 0)
(579.664 -9.70254e-14 0)
(578.742 1.48857e-09 0)
(575.5 -1.72337e-08 0)
(565.953 -3.54309e-09 0)
(547.828 2.05193e-08 0)
(532.014 8.41702e-10 0)
(527.313 -8.24996e-09 0)
(526.755 -1.02648e-08 0)
(526.643 -7.58332e-09 0)
(526.53 -5.07609e-09 0)
(526.348 -2.49862e-09 0)
(526.095 -2.0182e-09 0)
(525.806 -1.431e-09 0)
(525.602 9.56221e-11 0)
(525.567 2.03302e-09 0)
(525.589 3.57566e-09 0)
(525.581 4.45243e-09 0)
(525.578 4.88591e-09 0)
(525.574 4.86611e-09 0)
(525.563 4.28054e-09 0)
(525.541 3.19902e-09 0)
(525.523 2.10393e-09 0)
(525.519 9.16069e-10 0)
(525.534 2.07448e-10 0)
(525.569 -4.84545e-10 0)
(525.627 -1.56534e-09 0)
(525.711 -2.23163e-09 0)
(525.83 -2.25306e-09 0)
(525.941 -2.15487e-09 0)
(526.012 -1.68814e-09 0)
(526.072 -7.08963e-10 0)
(526.096 -6.73469e-11 0)
(526.102 2.16791e-11 0)
(526.103 1.01364e-10 0)
(526.087 1.48833e-10 0)
(526.046 -1.30879e-10 0)
(525.988 -4.75048e-10 0)
(525.951 -6.76768e-10 0)
(525.933 -6.61453e-10 0)
(525.908 -5.35235e-10 0)
(525.885 -7.22602e-10 0)
(525.867 -6.22936e-10 0)
(525.856 -1.18364e-10 0)
(525.84 3.73663e-10 0)
(525.801 5.02467e-10 0)
(525.782 4.8393e-10 0)
(525.767 4.28136e-10 0)
(525.751 3.14316e-10 0)
(525.743 1.99565e-10 0)
(525.738 1.33221e-10 0)
(525.741 1.1982e-10 0)
(525.763 5.49322e-12 0)
(525.796 1.98378e-10 0)
(525.842 2.37297e-10 0)
(525.881 2.2404e-10 0)
(525.913 4.03976e-10 0)
(580 -2.1513e-14 0)
(580 -1.81076e-14 0)
(580 -1.85901e-13 0)
(580 -2.48417e-13 0)
(580 -3.23564e-13 0)
(580 9.61778e-15 0)
(580 -6.66525e-14 0)
(580 1.92821e-12 0)
(580 -1.87011e-12 0)
(580 3.45141e-12 0)
(579.998 2.35368e-12 0)
(579.994 1.34731e-11 0)
(579.977 9.00769e-11 0)
(579.911 -8.38702e-10 0)
(579.664 9.70984e-10 0)
(578.742 8.27779e-09 0)
(575.5 -2.05478e-08 0)
(565.953 1.47074e-08 0)
(547.828 3.67546e-08 0)
(532.014 -9.53206e-09 0)
(527.313 -9.72142e-09 0)
(526.755 -9.08347e-09 0)
(526.643 -7.90161e-09 0)
(526.53 -6.66618e-09 0)
(526.348 -5.32262e-09 0)
(526.095 -4.99969e-09 0)
(525.806 -5.38104e-09 0)
(525.602 -3.51103e-09 0)
(525.567 -1.04902e-09 0)
(525.589 9.34116e-10 0)
(525.581 2.14454e-09 0)
(525.578 2.84935e-09 0)
(525.574 3.4984e-09 0)
(525.563 3.74597e-09 0)
(525.541 3.13367e-09 0)
(525.523 1.7933e-09 0)
(525.519 3.62486e-10 0)
(525.534 -7.16379e-10 0)
(525.569 -1.43563e-09 0)
(525.627 -1.80352e-09 0)
(525.711 -1.51313e-09 0)
(525.83 -1.16345e-09 0)
(525.941 -1.01244e-09 0)
(526.012 -5.86891e-10 0)
(526.072 -2.20271e-10 0)
(526.096 5.91291e-12 0)
(526.102 3.29936e-11 0)
(526.103 5.97366e-11 0)
(526.087 7.65834e-11 0)
(526.046 -1.60527e-11 0)
(525.988 -3.56475e-10 0)
(525.951 -4.88732e-10 0)
(525.933 -4.81713e-10 0)
(525.908 -4.61033e-10 0)
(525.885 -3.78351e-10 0)
(525.867 -4.07369e-10 0)
(525.856 3.40405e-11 0)
(525.84 3.67702e-10 0)
(525.801 3.65162e-10 0)
(525.782 3.58524e-10 0)
(525.767 3.23364e-10 0)
(525.751 1.41681e-10 0)
(525.743 2.27445e-10 0)
(525.738 1.22238e-10 0)
(525.741 3.00324e-10 0)
(525.763 2.93882e-10 0)
(525.796 4.32148e-10 0)
(525.842 4.20331e-10 0)
(525.881 4.43944e-10 0)
(525.913 6.65626e-10 0)
(580 4.14953e-13 0)
(580 3.05478e-13 0)
(580 5.41293e-13 0)
(580 8.10603e-13 0)
(580 1.22357e-12 0)
(580 1.05917e-12 0)
(580 1.83296e-12 0)
(580 -3.89947e-13 0)
(580 5.19286e-12 0)
(580 -1.67e-12 0)
(579.998 -8.9272e-12 0)
(579.994 1.82879e-11 0)
(579.977 -1.09995e-10 0)
(579.911 8.76361e-10 0)
(579.664 -1.20131e-09 0)
(578.742 -1.38768e-09 0)
(575.5 8.85706e-09 0)
(565.953 -5.54481e-09 0)
(547.828 1.06572e-09 0)
(532.014 4.58611e-08 0)
(527.313 8.50599e-09 0)
(526.755 1.77477e-09 0)
(526.643 -4.06062e-10 0)
(526.53 -2.39512e-09 0)
(526.348 -4.05718e-09 0)
(526.095 -4.0014e-09 0)
(525.806 -4.81033e-09 0)
(525.602 -4.64582e-09 0)
(525.567 -3.14699e-09 0)
(525.589 -1.62667e-09 0)
(525.581 -1.36082e-09 0)
(525.578 -1.1369e-09 0)
(525.574 -7.52783e-10 0)
(525.563 -5.59916e-10 0)
(525.541 -6.48617e-10 0)
(525.523 -8.43479e-10 0)
(525.519 -1.03463e-09 0)
(525.534 -1.22193e-09 0)
(525.569 -1.34522e-09 0)
(525.627 -1.24485e-09 0)
(525.711 -1.02598e-10 0)
(525.83 2.71052e-10 0)
(525.941 5.82072e-10 0)
(526.012 6.87193e-10 0)
(526.072 7.17904e-10 0)
(526.096 6.89414e-10 0)
(526.102 6.20023e-10 0)
(526.103 4.95921e-10 0)
(526.087 1.49199e-10 0)
(526.046 -1.15923e-10 0)
(525.988 -2.70064e-10 0)
(525.951 -3.60171e-10 0)
(525.933 -3.20936e-10 0)
(525.908 -1.90643e-10 0)
(525.885 -1.62241e-10 0)
(525.867 -1.70845e-10 0)
(525.856 -1.35168e-10 0)
(525.84 4.80346e-11 0)
(525.801 1.43314e-10 0)
(525.782 1.97076e-10 0)
(525.767 1.28976e-10 0)
(525.751 2.18699e-10 0)
(525.743 1.05026e-10 0)
(525.738 1.47219e-10 0)
(525.741 3.08822e-10 0)
(525.763 6.16384e-10 0)
(525.796 5.38668e-10 0)
(525.842 4.25764e-10 0)
(525.881 5.44997e-10 0)
(525.913 8.52927e-10 0)
(580 7.37523e-13 0)
(580 6.60213e-13 0)
(580 6.45639e-13 0)
(580 7.80129e-13 0)
(580 1.09485e-12 0)
(580 1.38348e-12 0)
(580 1.45795e-12 0)
(580 1.01e-12 0)
(580 3.30233e-12 0)
(580 2.73795e-12 0)
(579.998 -9.45565e-13 0)
(579.994 -6.1761e-11 0)
(579.977 2.74489e-10 0)
(579.911 -4.28658e-10 0)
(579.664 5.12965e-10 0)
(578.742 -7.15785e-09 0)
(575.5 2.9137e-08 0)
(565.953 -2.89533e-08 0)
(547.828 -4.10718e-08 0)
(532.014 2.06029e-08 0)
(527.313 1.4588e-08 0)
(526.755 1.14468e-08 0)
(526.643 8.31533e-09 0)
(526.53 5.364e-09 0)
(526.348 2.95045e-09 0)
(526.095 2.06893e-09 0)
(525.806 1.99765e-09 0)
(525.602 -2.19916e-10 0)
(525.567 -2.22806e-09 0)
(525.589 -3.73036e-09 0)
(525.581 -4.4478e-09 0)
(525.578 -4.86598e-09 0)
(525.574 -4.81877e-09 0)
(525.563 -4.33204e-09 0)
(525.541 -3.56738e-09 0)
(525.523 -2.65211e-09 0)
(525.519 -1.93685e-09 0)
(525.534 -1.14934e-09 0)
(525.569 -8.76693e-10 0)
(525.627 1.35837e-10 0)
(525.711 1.12857e-09 0)
(525.83 1.54888e-09 0)
(525.941 1.69127e-09 0)
(526.012 1.68228e-09 0)
(526.072 1.30686e-09 0)
(526.096 8.53919e-10 0)
(526.102 7.13825e-10 0)
(526.103 4.64783e-10 0)
(526.087 2.36298e-10 0)
(526.046 5.66332e-11 0)
(525.988 -2.15252e-11 0)
(525.951 2.11996e-11 0)
(525.933 6.65639e-12 0)
(525.908 5.97475e-11 0)
(525.885 -6.68843e-11 0)
(525.867 -2.48385e-10 0)
(525.856 -1.5224e-10 0)
(525.84 1.14008e-11 0)
(525.801 4.87815e-11 0)
(525.782 1.9324e-11 0)
(525.767 8.73235e-11 0)
(525.751 5.40321e-11 0)
(525.743 1.47078e-10 0)
(525.738 1.80332e-10 0)
(525.741 5.40235e-10 0)
(525.763 5.60596e-10 0)
(525.796 4.03524e-10 0)
(525.842 2.43782e-10 0)
(525.881 4.09097e-10 0)
(525.913 7.91315e-10 0)
(580 4.16829e-13 0)
(580 4.18507e-13 0)
(580 4.57583e-13 0)
(580 6.37972e-13 0)
(580 8.15355e-13 0)
(580 1.6289e-12 0)
(580 5.67277e-13 0)
(580 3.38504e-12 0)
(580 -4.60252e-12 0)
(580 2.07951e-11 0)
(579.998 -3.7304e-11 0)
(579.994 5.56573e-11 0)
(579.977 -1.0963e-10 0)
(579.911 5.28653e-10 0)
(579.664 -1.86047e-09 0)
(578.742 -4.8687e-09 0)
(575.5 2.75403e-08 0)
(565.953 -1.43156e-08 0)
(547.828 -6.66551e-08 0)
(532.014 -4.12887e-08 0)
(527.313 6.93786e-09 0)
(526.755 1.48891e-08 0)
(526.643 1.24765e-08 0)
(526.53 9.86244e-09 0)
(526.348 7.84659e-09 0)
(526.095 6.72312e-09 0)
(525.806 6.79418e-09 0)
(525.602 3.84928e-09 0)
(525.567 -2.98518e-10 0)
(525.589 -3.51758e-09 0)
(525.581 -4.83994e-09 0)
(525.578 -5.59607e-09 0)
(525.574 -6.31473e-09 0)
(525.563 -6.37697e-09 0)
(525.541 -5.31849e-09 0)
(525.523 -3.53997e-09 0)
(525.519 -1.71548e-09 0)
(525.534 -7.66321e-10 0)
(525.569 3.48119e-10 0)
(525.627 7.63596e-10 0)
(525.711 7.449e-10 0)
(525.83 7.80477e-10 0)
(525.941 7.95946e-10 0)
(526.012 8.06811e-10 0)
(526.072 6.96194e-10 0)
(526.096 6.50832e-10 0)
(526.102 6.41607e-10 0)
(526.103 5.26559e-10 0)
(526.087 4.9605e-10 0)
(526.046 3.98781e-10 0)
(525.988 4.32235e-10 0)
(525.951 4.86051e-10 0)
(525.933 4.78216e-10 0)
(525.908 2.15658e-10 0)
(525.885 8.27434e-11 0)
(525.867 -1.88915e-10 0)
(525.856 -6.54413e-11 0)
(525.84 1.56235e-10 0)
(525.801 1.60064e-10 0)
(525.782 2.10244e-10 0)
(525.767 2.56682e-10 0)
(525.751 2.39561e-10 0)
(525.743 4.05816e-10 0)
(525.738 3.7738e-10 0)
(525.741 5.59098e-10 0)
(525.763 6.973e-10 0)
(525.796 3.0209e-10 0)
(525.842 1.80254e-10 0)
(525.881 3.31313e-10 0)
(525.913 6.14629e-10 0)
(580 -4.40712e-13 0)
(580 -3.51125e-13 0)
(580 -2.15015e-13 0)
(580 6.02313e-14 0)
(580 3.0735e-13 0)
(580 8.85869e-13 0)
(580 6.3946e-13 0)
(580 -4.09286e-13 0)
(580 5.35925e-12 0)
(580 -1.30834e-11 0)
(579.998 4.20206e-11 0)
(579.994 -1.3921e-10 0)
(579.977 3.15626e-10 0)
(579.911 1.31515e-10 0)
(579.664 -7.38263e-10 0)
(578.742 1.13925e-10 0)
(575.5 1.31791e-09 0)
(565.953 3.3224e-09 0)
(547.828 -1.01328e-08 0)
(532.014 1.10342e-08 0)
(527.313 4.21393e-09 0)
(526.755 4.32713e-09 0)
(526.643 3.45288e-09 0)
(526.53 2.68669e-09 0)
(526.348 1.7931e-09 0)
(526.095 1.47025e-09 0)
(525.806 9.44911e-10 0)
(525.602 -5.74935e-12 0)
(525.567 -1.8631e-09 0)
(525.589 -3.25396e-09 0)
(525.581 -3.75374e-09 0)
(525.578 -3.86619e-09 0)
(525.574 -3.74145e-09 0)
(525.563 -3.11949e-09 0)
(525.541 -2.21991e-09 0)
(525.523 -1.21182e-09 0)
(525.519 -1.73493e-10 0)
(525.534 6.98394e-10 0)
(525.569 1.15955e-09 0)
(525.627 6.66088e-10 0)
(525.711 2.77267e-10 0)
(525.83 5.06317e-11 0)
(525.941 -4.55768e-11 0)
(526.012 -1.114e-12 0)
(526.072 2.14669e-10 0)
(526.096 4.75924e-10 0)
(526.102 5.39372e-10 0)
(526.103 6.39694e-10 0)
(526.087 5.75576e-10 0)
(526.046 5.38883e-10 0)
(525.988 4.06378e-10 0)
(525.951 3.45403e-10 0)
(525.933 3.3348e-10 0)
(525.908 2.26497e-10 0)
(525.885 -5.69306e-11 0)
(525.867 2.23325e-10 0)
(525.856 3.29628e-10 0)
(525.84 2.85281e-10 0)
(525.801 3.24695e-10 0)
(525.782 3.22597e-10 0)
(525.767 3.3457e-10 0)
(525.751 3.80745e-10 0)
(525.743 3.18634e-10 0)
(525.738 3.3835e-10 0)
(525.741 3.1553e-10 0)
(525.763 4.80747e-10 0)
(525.796 1.97166e-10 0)
(525.842 6.52165e-11 0)
(525.881 2.17874e-10 0)