/*--------------------------------*- C++ -*----------------------------------*\
| =========                 |                                                 |
| \\      /  F ield         | OpenFOAM: The Open Source CFD Toolbox           |
|  \\    /   O peration     | Version:  2306                                  |
|   \\  /    A nd           | Website:  www.openfoam.com                      |
|    \\/     M anipulation  |                                                 |
\*---------------------------------------------------------------------------*/
FoamFile
{
    version     2.0;
    format      ascii;
    arch        "LSB;label=32;scalar=64";
    class       volScalarField;
    location    "4e-05";
    object      p;
}
// * * * * * * * * * * * * * * * * * * * * * * * * * * * * * * * * * * * * * //

dimensions      [1 -1 -2 0 0 0 0];

internalField   nonuniform List<scalar> 
9032
(
109687
109604
109538
109525
109553
109622
109770
110237
111153
112531
114179
115219
115898
116301
116472
116480
116434
116339
116208
116051
115875
115686
115489
115282
115064
114837
114607
114378
114152
113929
113705
113474
113227
112958
112671
112377
112089
111810
111540
111280
111025
110768
110515
110268
110022
109776
109526
109267
108998
108737
108508
108287
108063
107835
107601
107355
107090
106824
106598
106403
106220
106049
105885
105699
105491
105268
105018
104808
109642
109549
109515
109538
109586
109666
109878
110453
111566
113237
114885
115803
116302
116518
116559
116520
116426
116309
116171
116005
115821
115628
115427
115213
114988
114753
114517
114284
114056
113826
113591
113346
113086
112811
112526
112239
111956
111681
111414
111151
110893
110639
110389
110143
109900
109656
109409
109157
108895
108638
108403
108177
107949
107720
107486
107246
106997
106747
106518
106311
106118
105934
105754
105570
105369
105159
104935
104742
109570
109571
109567
109581
109605
109682
109932
110602
111959
113806
115240
115988
116332
116436
116438
116414
116372
116294
116167
116001
115812
115611
115400
115178
114945
114704
114464
114229
113998
113763
113518
113260
112988
112709
112427
112147
111871
111601
111335
111068
110804
110559
110315
110072
109831
109589
109347
109102
108849
108592
108346
108114
107889
107664
107439
107211
106976
106738
106504
106274
106058
105863
105676
105500
105319
105128
104921
104754
109658
109645
109611
109586
109616
109688
109990
110876
112487
114369
115555
116106
116347
116438
116456
116446
116405
116317
116178
116001
115800
115584
115359
115126
114885
114637
114391
114150
113911
113668
113415
113150
112874
112597
112323
112049
111778
111510
111247
110983
110717
110472
110232
109992
109756
109520
109284
109048
108802
108548
108296
108053
107824
107601
107383
107164
106938
106708
106475
106241
106005
105774
105571
105394
105232
105070
104876
104729
109666
109636
109596
109575
109617
109737
110133
111219
113125
114921
115809
116189
116331
116410
116448
116456
116424
116327
116176
115985
115771
115543
115309
115071
114827
114583
114337
114092
113848
113598
113340
113072
112794
112516
112245
111973
111703
111439
111178
110917
110655
110403
110153
109908
109674
109444
109214
108983
108746
108498
108242
107986
107749
107526
107311
107106
106897
106677
106453
106222
105977
105720
105484
105291
105119
104957
104766
104630
109709
109644
109592
109582
109632
109776
110308
111688
113752
115325
115969
116236
116361
116437
116470
116471
116428
116320
116163
115966
115726
115473
115226
114987
114749
114510
114267
114019
113771
113517
113256
112986
112702
112420
112147
111878
111614
111354
111097
110839
110578
110317
110055
109803
109568
109346
109127
108907
108676
108430
108170
107913
107667
107440
107226
107024
106829
106622
106411
106189
105950
105689
105426
105211
105026
104842
104641
104499
109625
109572
109556
109580
109637
109822
110528
112200
114340
115608
116060
116269
116388
116466
116501
116496
116425
116288
116108
115892
115649
115392
115142
114906
114674
114437
114194
113945
113693
113435
113171
112901
112624
112346
112070
111799
111536
111278
111025
110771
110512
110247
109984
109720
109469
109252
109042
108828
108601
108358
108103
107852
107607
107367
107146
106939
106737
106532
106327
106118
105900
105661
105404
105169
104953
104752
104538
104391
109557
109598
109617
109643
109675
109911
110854
112821
114822
115803
116166
116374
116495
116546
116543
116484
116359
116196
116009
115802
115572
115314
115060
114829
114609
114384
114147
113897
113635
113368
113104
112845
112580
112304
112023
111746
111477
111215
110962
110711
110454
110187
109913
109644
109387
109159
108949
108740
108518
108283
108044
107809
107569
107321
107082
106859
106639
106423
106216
106017
105824
105616
105390
105150
104912
104689
104465
104313
109569
109614
109631
109655
109685
110002
111221
113408
115238
115972
116289
116490
116575
116584
116535
116420
116265
116100
115923
115729
115512
115263
114999
114759
114536
114312
114079
113831
113563
113285
113008
112747
112495
112232
111957
111679
111404
111139
110886
110641
110393
110131
109858
109589
109322
109070
108849
108637
108419
108195
107975
107753
107520
107275
107024
106781
106545
106320
106112
105915
105734
105546
105350
105127
104898
104665
104435
104273
109612
109640
109692
109666
109684
110139
111662
114004
115615
116129
116415
116591
116639
116616
116526
116367
116179
116009
115843
115666
115463
115225
114962
114711
114477
114242
114000
113749
113487
113209
112926
112663
112408
112147
111878
111607
111338
111074
110821
110576
110331
110077
109813
109542
109265
108989
108756
108541
108323
108110
107904
107689
107461
107221
106972
106723
106475
106241
106025
105823
105646
105465
105285
105079
104869
104642
104419
104245
109630
109633
109762
109662
109708
110329
112208
114608
115932
116330
116566
116673
116672
116622
116502
116330
116140
115964
115797
115616
115421
115200
114949
114691
114445
114196
113942
113683
113417
113141
112860
112573
112300
112040
111776
111510
111245
110980
110727
110486
110249
110005
109752
109486
109211
108941
108701
108486
108271
108059
107847
107628
107403
107171
106932
106688
106440
106198
105963
105745
105558
105375
105199
105003
104812
104603
104390
104209
108432
109771
109840
109564
109683
110580
112862
115213
116147
116478
116666
116721
116688
116610
116481
116317
116142
115957
115776
115589
115387
115167
114926
114664
114384
114104
113828
113560
113296
113026
112746
112465
112198
111934
111674
111419
111167
110915
110667
110425
110187
109947
109702
109446
109179
108914
108664
108433
108212
107995
107776
107550
107320
107090
106861
106630
106397
106160
105917
105685
105487
105299
105118
104925
104739
104542
104337
104156
97012
110144
109693
109406
109747
110955
113647
115769
116351
116598
116714
116720
116674
116578
116455
116317
116152
115970
115780
115581
115364
115139
114904
114643
114361
114073
113787
113509
113237
112969
112695
112418
112147
111881
111619
111359
111101
110849
110606
110363
110119
109874
109625
109369
109104
108841
108594
108365
108145
107923
107696
107464
107234
107007
106786
106564
106342
106107
105858
105614
105397
105199
105011
104824
104641
104456
104259
104091
57725.3
99657.8
108510
109542
109901
111467
114489
116115
116515
116658
116695
116689
116658
116583
116461
116317
116165
115989
115767
115520
115267
115026
114797
114565
114316
114047
113770
113488
113205
112923
112644
112369
112093
111818
111544
111274
111006
110751
110513
110279
110044
109804
109558
109305
109049
108795
108545
108308
108078
107847
107613
107377
107147
106922
106705
106491
106277
106047
105804
105562
105336
105141
104946
104754
104551
104373
104178
104019
33621.2
57628
96556.7
109847
109641
112240
115352
116317
116596
116653
116690
116736
116728
116650
116517
116349
116156
115937
115690
115428
115173
114937
114715
114488
114240
113971
113693
113413
113139
112869
112599
112329
112058
111788
111511
111225
110939
110671
110431
110198
109961
109718
109467
109209
108952
108702
108462
108233
108006
107777
107543
107307
107073
106847
106627
106411
106196
105971
105739
105513
105285
105082
104864
104655
104442
104287
104097
103948
32007.1
33414.5
56708.9
98071.6
108399
113621
115680
116262
116534
116610
116735
116857
116867
116732
116525
116311
116108
115898
115656
115380
115108
114870
114650
114418
114160
113883
113596
113305
113027
112771
112522
112267
112010
111751
111479
111187
110882
110601
110360
110132
109900
109658
109403
109134
108869
108615
108376
108148
107922
107696
107458
107217
106980
106758
106538
106323
106111
105895
105677
105457
105231
105024
104801
104604
104401
104238
104049
103894
32000
32005.5
33404.5
55040.4
96274.5
114429
115545
116307
116662
116755
116955
117055
116960
116720
116470
116267
116078
115873
115627
115346
115066
114817
114579
114323
114059
113793
113513
113217
112918
112650
112410
112173
111936
111694
111436
111148
110834
110535
110285
110064
109836
109592
109329
109049
108769
108510
108272
108046
107825
107603
107370
107139
106914
106699
106477
106259
106044
105829
105617
105400
105193
104990
104780
104574
104366
104195
104008
103843
32000
32000
32005.4
33107.1
53978.5
101743
114461
117177
116864
116911
117149
117125
116929
116661
116426
116248
116075
115877
115648
115382
115064
114750
114469
114207
113969
113720
113443
113133
112813
112516
112256
112035
111826
111608
111369
111096
110789
110473
110198
109967
109737
109499
109246
108976
108694
108430
108193
107965
107748
107530
107305
107079
106860
106641
106415
106190
105972
105758
105549
105342
105150
104946
104743
104528
104313
104131
103943
103764
32000
32000
32000
32003.8
32958.1
57004.7
105500
118569
116840
117116
117307
117065
116874
116653
116431
116252
116083
115888
115639
115330
114979
114666
114425
114183
113927
113658
113364
113046
112736
112443
112159
111915
111710
111506
111279
111022
110729
110410
110110
109859
109639
109417
109176
108914
108628
108356
108113
107880
107661
107451
107241
107029
106814
106580
106328
106095
105885
105684
105486
105289
105098
104894
104691
104477
104261
104082
103890
103722
32000
32000
32000
32000
32003
33335.6
62726.2
109187
115637
117698
117208
116872
116754
116640
116521
116350
116159
115920
115622
115291
114962
114670
114402
114124
113837
113543
113251
112969
112700
112433
112150
111851
111599
111383
111164
110919
110647
110347
110049
109784
109549
109326
109089
108835
108557
108274
108021
107783
107560
107353
107152
106941
106724
106502
106276
106051
105838
105635
105434
105234
105039
104835
104627
104412
104190
104003
103815
103645
32000
32000
32000
32000
32000
32005.3
34118.3
69605.2
112321
119465
117012
116910
116801
116713
116572
116396
116153
115857
115558
115232
114921
114639
114339
114036
113735
113430
113153
112910
112669
112420
112150
111837
111518
111265
111040
110811
110560
110289
110009
109729
109474
109228
108986
108733
108473
108223
107984
107754
107526
107305
107096
106884
106666
106444
106224
106007
105795
105587
105381
105179
104978
104773
104562
104343
104120
103917
103729
103562
32000
32000
32000
32000
32000
32000
32010.2
35857.4
76938.2
113126
115803
117042
116872
116730
116607
116350
116046
115745
115438
115129
114838
114585
114298
113990
113678
113361
113061
112830
112618
112386
112112
111782
111436
111149
110908
110690
110476
110245
109990
109716
109439
109153
108859
108604
108381
108165
107944
107719
107489
107256
107034
106819
106601
106386
106174
105964
105751
105539
105328
105124
104921
104716
104503
104279
104056
103846
103655
103488
32000
32000
32000
32000
32000
32000
32000
32027.2
37869.5
82414
115819
118269
116936
116763
116592
116283
115940
115651
115358
115051
114762
114521
114256
113961
113662
113339
113006
112716
112496
112279
112024
111716
111362
111041
110787
110561
110358
110162
109937
109679
109395
109087
108785
108529
108299
108098
107902
107685
107448
107203
106961
106731
106508
106295
106092
105891
105686
105476
105266
105064
104863
104658
104444
104219
104002
103796
103597
103428
32000
32000
32000
32000
32000
32000
32000
32000
32053.9
40485.4
89325.4
114649
116459
116748
116487
116160
115919
115659
115333
114987
114687
114433
114184
113909
113638
113342
112996
112646
112379
112156
111914
111636
111313
110959
110658
110418
110201
110016
109841
109603
109318
108997
108692
108443
108218
108021
107833
107615
107368
107106
106859
106629
106415
106209
106008
105808
105604
105393
105182
104985
104791
104589
104377
104159
103958
103759
103555
103382
32000
32000
32000
32000
32000
32000
32000
32000
32000.1
32109.1
43585.7
92689.1
116757
117545
116383
116169
116020
115700
115313
114931
114588
114325
114103
113866
113612
113337
113006
112616
112291
112047
111833
111581
111278
110933
110580
110298
110054
109854
109708
109512
109229
108920
108619
108367
108140
107934
107737
107511
107266
107007
106757
106526
106309
106101
105903
105706
105500
105278
105067
104880
104695
104498
104292
104095
103910
103715
103517
103344
32000
32000
32000
32000
32000
32000
32000
32000
32000
32000.2
32200.9
46545.9
97799.2
115333
115972
116306
115972
115597
115278
114848
114435
114130
113920
113753
113557
113296
112993
112615
112260
111995
111777
111563
111270
110941
110565
110238
109975
109743
109582
109422
109157
108874
108577
108298
108063
107842
107630
107404
107164
106919
106674
106436
106212
106005
105804
105598
105386
105163
104957
104771
104584
104390
104201
104018
103840
103658
103472
103301
32000
32000
32000
32000
32000
32000
32000
32000
32000
32000
32000.3
32328.4
49981.8
98445.9
116871
116997
115744
115561
115228
114738
114287
113956
113741
113591
113450
113193
112897
112530
112187
111915
111707
111531
111256
110951
110581
110205
109924
109672
109482
109333
109098
108834
108549
108244
107981
107751
107530
107309
107080
106849
106613
106377
106153
105947
105744
105531
105305
105079
104878
104684
104486
104291
104108
103927
103753
103586
103414
103244
32000
32000
32000
32000
32000
32000
32000
32000
32000
32000
32000
32000.6
32537.2
51923
103181
115333
115419
115634
115034
114677
114241
113903
113636
113452
113323
113068
112756
112377
112039
111754
111555
111410
111167
110893
110558
110176
109879
109616
109404
109247
109027
108771
108497
108191
107902
107665
107442
107222
107003
106786
106561
106335
106116
105905
105692
105472
105247
105035
104831
104620
104404
104202
104014
103835
103665
103511
103347
103174
32000
32000
32000
32000
32000
32000
32000
32000
32000
32000
32000
32000
32001.4
32717.3
56362.8
101830
116027
116147
115117
114707
114264
113932
113659
113464
113285
113011
112672
112237
111863
111558
111355
111234
111029
110779
110478
110116
109820
109558
109333
109155
108932
108677
108411
108120
107838
107593
107369
107148
106930
106708
106484
106266
106053
105841
105627
105414
105202
104996
104788
104568
104347
104142
103947
103769
103596
103440
103274
103094
32000
32000
32000
32000
32000
32000
32000
32000
32000
32000
32000
32000
32000
32002.1
33163
56672.6
104396
115124
114823
114708
114356
114027
113743
113557
113331
113050
112666
112205
111795
111460
111228
111091
110907
110670
110383
110056
109771
109510
109272
109059
108817
108559
108295
108032
107786
107555
107329
107100
106863
106619
106387
106177
105976
105768
105557
105347
105138
104932
104724
104515
104303
104105
103907
103725
103542
103368
103196
103008
32000
32000
32000
32000
32000
32000
32000
32000
32000
32000
32000
32000
32000
32000
32004.2
33189
58145.6
104231
115166
114883
113984
113630
113597
113577
113391
113086
112657
112216
111839
111518
111268
111056
110826
110580
110291
109998
109741
109484
109235
108975
108704
108428
108168
107941
107731
107520
107295
107061
106808
106540
106298
106090
105897
105693
105482
105272
105059
104847
104642
104441
104238
104048
103860
103678
103487
103299
103125
102926
32000
32000
32000
32000
32000
32000
32000
32000
32000
32000
32000
32000
32000
32000
32000
32004
33428.2
58743.9
105007
112729
112992
113162
113510
113486
113278
112901
112482
112120
111817
111576
111338
111074
110793
110481
110167
109913
109675
109448
109200
108926
108627
108320
108066
107846
107655
107470
107248
107008
106743
106465
106222
106008
105818
105621
105407
105187
104970
104759
104559
104362
104163
103976
103791
103611
103425
103230
103056
102855
32000
32000
32000
32000
32000
32000
32000
32000
32000
32000
32000
32000
32000
32000
32000
32000
32005.7
33465.4
59257
100898
114424
114166
113489
113170
112815
112418
112215
111964
111729
111521
111294
111032
110700
110332
110033
109795
109571
109379
109152
108879
108565
108239
107985
107762
107566
107390
107179
106936
106672
106397
106153
105934
105738
105541
105328
105113
104904
104702
104505
104303
104096
103898
103706
103524
103347
103163
102993
102791
32000
32000
32000
32000
32000
32000
32000
32000
32000
32000
32000
32000
32000
32000
32000
32000
32000
32006
33440.9
55627.5
101233
113278
113223
112779
112483
112414
112123
111866
111609
111350
111121
110920
110581
110227
109922
109674
109452
109289
109092
108829
108522
108192
107926
107697
107485
107294
107093
106857
106603
106339
106095
105869
105658
105450
105243
105042
104849
104664
104474
104266
104053
103837
103630
103441
103265
103089
102924
102725
32000
32000
32000
32000
32000
32000
32000
32000
32000
32000
32000
32000
32000
32000
32000
32000
32000
32000
32005.3
33082.4
54301.8
100629
112583
113221
112755
112579
112461
112111
111639
111323
111078
110800
110531
110232
109891
109605
109357
109185
109006
108765
108487
108181
107896
107653
107424
107207
106996
106773
106538
106300
106059
105820
105583
105362
105157
104965
104783
104613
104438
104241
104028
103805
103583
103379
103192
103010
102843
102647
32000
32000
32000
32000
32000
32000
32000
32000
32000
32000
32000
32000
32000
32000
32000
32000
32000
32000
32000
32003.7
32945.1
53662.5
95203.3
111335
113419
113286
112774
112127
111677
111270
110930
110704
110506
110257
109905
109564
109277
109055
108864
108650
108407
108141
107871
107614
107366
107127
106890
106662
106451
106247
106016
105775
105526
105288
105079
104882
104700
104532
104369
104194
103996
103783
103562
103343
103133
102935
102756
102555
32000
32000
32000
32000
32000
32000
32000
32000
32000
32000
32000
32000
32000
32000
32000
32000
32000
32000
32000
32000
32003.1
32789.7
49007.8
89678.4
112530
112558
112347
111713
111167
110855
110680
110515
110395
110227
109918
109567
109216
108931
108696
108480
108270
108052
107824
107582
107316
107035
106770
106530
106321
106140
105939
105714
105479
105235
105011
104808
104613
104431
104257
104087
103919
103734
103529
103315
103092
102872
102680
102469
32000
32000
32000
32000
32000
32000
32000
32000
32000
32000
32000
32000
32000
32000
32000
32000
32000
32000
32000
32000
32000
32002.1
32450.3
44571
89019.9
109243
111598
111397
110869
110471
110402
110348
110207
110100
109847
109543
109219
108881
108580
108324
108109
107945
107773
107549
107291
106990
106682
106417
106187
105996
105819
105618
105407
105185
104960
104747
104543
104340
104144
103958
103789
103631
103456
103255
103043
102820
102611
102398
32000
32000
32000
32000
32000
32000
32000
32000
32000
32000
32000
32000
32000
32000
32000
32000
32000
32000
32000
32000
32000
32000
32000.9
32252.5
43395.9
81425.9
108637
112467
111819
110987
110581
110312
110135
109877
109639
109413
109190
108904
108555
108240
107990
107803
107656
107487
107254
106979
106672
106370
106107
105882
105688
105501
105304
105106
104910
104709
104498
104279
104061
103855
103662
103493
103341
103166
102970
102764
102553
102341
32000
32000
32000
32000
32000
32000
32000
32000
32000
32000
32000
32000
32000
32000
32000
32000
32000
32000
32000
32000
32000
32000
32000
32000.5
32193.7
39921.7
73251.5
107382
111342
111490
111069
110506
110028
109639
109407
109243
109090
108832
108523
108182
107899
107667
107480
107319
107131
106897
106637
106360
106084
105832
105604
105391
105191
105002
104826
104652
104454
104238
104007
103782
103573
103378
103211
103059
102882
102691
102497
102291
32000
32000
32000
32000
32000
32000
32000
32000
32000
32000
32000
32000
32000
32000
32000
32000
32000
32000
32000
32000
32000
32000
32000
32000
32000.3
32090.9
36593.1
68552.1
100140
110495
111084
110478
109741
109389
109151
108960
108843
108686
108449
108181
107879
107593
107347
107134
106938
106728
106509
106284
106049
105805
105559
105318
105099
104896
104711
104549
104378
104175
103954
103723
103506
103299
103107
102944
102787
102605
102427
102227
32000
32000
32000
32000
32000
32000
32000
32000
32000
32000
32000
32000
32000
32000
32000
32000
32000
32000
32000
32000
32000
32000
32000
32000
32000
32000.1
32035.5
35120.1
58167.1
97301.3
110116
109767
109786
109533
109304
108918
108715
108582
108450
108241
107948
107628
107315
107037
106780
106539
106321
106124
105934
105731
105513
105284
105047
104824
104620
104440
104278
104089
103879
103655
103435
103226
103026
102846
102689
102516
102341
102145
32000
32000
32000
32000
32000
32000
32000
32000
32000
32000
32000
32000
32000
32000
32000
32000
32000
32000
32000
32000
32000
32000
32000
32000
32000
32000
32000
32018.6
33395
50851.3
90897.6
106784
110848
110223
109698
109055
108679
108500
108346
108118
107845
107590
107326
107045
106751
106455
106189
105963
105778
105618
105442
105235
105015
104786
104569
104369
104185
103991
103781
103561
103349
103145
102949
102768
102607
102434
102254
102058
32000
32000
32000
32000
32000
32000
32000
32000
32000
32000
32000
32000
32000
32000
32000
32000
32000
32000
32000
32000
32000
32000
32000
32000
32000
32000
32000
32000
32004.9
32607.6
45273
79785.5
106069
110002
109132
108587
108286
108176
108109
107868
107631
107421
107236
107030
106764
106456
106140
105880
105662
105484
105331
105157
104950
104732
104523
104323
104117
103906
103688
103465
103258
103061
102873
102701
102543
102363
102172
101972
32000
32000
32000
32000
32000
32000
32000
32000
32000
32000
32000
32000
32000
32000
32000
32000
32000
32000
32000
32000
32000
32000
32000
32000
32000
32000
32000
32000
32000
32001.5
32258.8
39362.4
69250.9
102373
108069
108310
108448
108244
108057
107760
107464
107246
107069
106906
106668
106394
106104
105840
105614
105411
105237
105054
104840
104627
104433
104243
104037
103824
103606
103383
103178
102988
102807
102644
102488
102299
102097
101892
32000
32000
32000
32000
32000
32000
32000
32000
32000
32000
32000
32000
32000
32000
32000
32000
32000
32000
32000
32000
32000
32000
32000
32000
32000
32000
32000
32000
32000
32000
32000.4
32082.3
35421
59667.1
92791.6
108122
109206
108657
108206
107833
107503
107235
106989
106766
106532
106288
106047
105828
105609
105398
105185
104955
104719
104497
104298
104113
103925
103727
103527
103320
103119
102933
102754
102592
102432
102237
102028
101821
32000
32000
32000
32000
32000
32000
32000
32000
32000
32000
32000
32000
32000
32000
32000
32000
32000
32000
32000
32000
32000
32000
32000
32000
32000
32000
32000
32000
32000
32000
32000
32000.1
32022.3
33565.6
47999.4
86052.8
103726
107059
107517
107635
107467
107252
106983
106688
106401
106136
105929
105746
105560
105349
105123
104888
104643
104402
104183
103983
103798
103623
103441
103252
103062
102876
102694
102526
102357
102159
101954
101749
32000
32000
32000
32000
32000
32000
32000
32000
32000
32000
32000
32000
32000
32000
32000
32000
32000
32000
32000
32000
32000
32000
32000
32000
32000
32000
32000
32000
32000
32000
32000
32000
32000
32006
32419.5
41882.9
71404.1
100988
107555
107443
107443
107423
106931
106562
106241
105992
105789
105611
105448
105271
105062
104837
104596
104335
104090
103872
103671
103499
103347
103176
102991
102803
102616
102443
102267
102073
101876
101678
32000
32000
32000
32000
32000
32000
32000
32000
32000
32000
32000
32000
32000
32000
32000
32000
32000
32000
32000
32000
32000
32000
32000
32000
32000
32000
32000
32000
32000
32000
32000
32000
32000
32000
32000.8
32141.5
36265.1
58955.5
91533.3
104624
108239
107805
106762
106310
106117
105935
105731
105529
105335
105166
104968
104742
104507
104246
103985
103763
103559
103383
103245
103098
102911
102713
102520
102340
102166
101980
101794
101605
32000
32000
32000
32000
32000
32000
32000
32000
32000
32000
32000
32000
32000
32000
32000
32000
32000
32000
32000
32000
32000
32000
32000
32000
32000
32000
32000
32000
32000
32000
32000
32000
32000
32000
32000
32000.2
32031.3
33373.5
47607
78206.8
103762
105756
105700
105888
106231
105992
105735
105475
105238
105043
104848
104618
104380
104125
103867
103650
103449
103270
103131
103003
102822
102620
102414
102228
102057
101887
101713
101531
32000
32000
32000
32000
32000
32000
32000
32000
32000
32000
32000
32000
32000
32000
32000
32000
32000
32000
32000
32000
32000
32000
32000
32000
32000
32000
32000
32000
32000
32000
32000
32000
32000
32000
32000
32000
32000
32004.7
32389
38719.1
65456.6
93106
105493
107258
106983
106113
105632
105297
105076
104903
104724
104496
104254
104014
103774
103565
103363
103174
103023
102895
102719
102516
102298
102108
101940
101789
101634
101461
32000
32000
32000
32000
32000
32000
32000
32000
32000
32000
32000
32000
32000
32000
32000
32000
32000
32000
32000
32000
32000
32000
32000
32000
32000
32000
32000
32000
32000
32000
32000
32000
32000
32000
32000
32000
32000
32000
32000.6
32071.9
34480.8
50799.5
82956.7
101676
104776
105027
105369
105220
104996
104825
104647
104459
104228
103996
103752
103512
103291
103080
102903
102762
102594
102402
102193
102003
101838
101690
101553
101392
32000
32000
32000
32000
32000
32000
32000
32000
32000
32000
32000
32000
32000
32000
32000
32000
32000
32000
32000
32000
32000
32000
32000
32000
32000
32000
32000
32000
32000
32000
32000
32000
32000
32000
32000
32000
32000
32000
32000
32000.1
32012.8
32627.9
40572.3
68011.4
93055.8
105238
106391
106020
105286
104831
104515
104304
104102
103918
103685
103425
103192
102980
102796
102654
102499
102319
102117
101918
101746
101589
101457
101302
32000
32000
32000
32000
32000
32000
32000
32000
32000
32000
32000
32000
32000
32000
32000
32000
32000
32000
32000
32000
32000
32000
32000
32000
32000
32000
32000
32000
32000
32000
32000
32000
32000
32000
32000
32000
32000
32000
32000
32000
32000
32001.4
32112
35262.2
51355.5
83159.4
100013
104222
104521
104414
104091
103997
103887
103777
103581
103337
103112
102908
102729
102591
102440
102266
102070
101855
101666
101490
101344
101181
32000
32000
32000
32000
32000
32000
32000
32000
32000
32000
32000
32000
32000
32000
32000
32000
32000
32000
32000
32000
32000
32000
32000
32000
32000
32000
32000
32000
32000
32000
32000
32000
32000
32000
32000
32000
32000
32000
32000
32000
32000
32000
32000.1
32019.7
32667.3
40712.3
66062.6
91521.9
104055
104857
104195
103980
103993
103737
103510
103302
103055
102840
102656
102513
102384
102217
102022
101799
101597
101411
101247
101071
32000
32000
32000
32000
32000
32000
32000
32000
32000
32000
32000
32000
32000
32000
32000
32000
32000
32000
32000
32000
32000
32000
32000
32000
32000
32000
32000
32000
32000
32000
32000
32000
32000
32000
32000
32000
32000
32000
32000
32000
32000
32000
32000
32000
32001.5
32114.5
34848.9
48790.9
79460
97048.5
103387
104612
104346
103768
103449
103199
102926
102709
102545
102405
102295
102140
101936
101717
101523
101353
101201
101030
32000
32000
32000
32000
32000
32000
32000
32000
32000
32000
32000
32000
32000
32000
32000
32000
32000
32000
32000
32000
32000
32000
32000
32000
32000
32000
32000
32000
32000
32000
32000
32000
32000
32000
32000
32000
32000
32000
32000
32000
32000
32000
32000
32000
32000
32000.1
32014.9
32477.1
38953.9
60348.9
87426.5
101888
102608
102784
102958
103085
102880
102669
102502
102356
102269
102114
101895
101648
101435
101266
101142
101008
32000
32000
32000
32000
32000
32000
32000
32000
32000
32000
32000
32000
32000
32000
32000
32000
32000
32000
32000
32000
32000
32000
32000
32000
32000
32000
32000
32000
32000
32000
32000
32000
32000
32000
32000
32000
32000
32000
32000
32000
32000
32000
32000
32000
32000
32000
32000
32000.9
32074.2
33776
44473.9
71854.9
92361.6
102271
103999
103827
103304
102841
102460
102248
102125
102012
101818
101555
101272
101095
100987
100931
32000
32000
32000
32000
32000
32000
32000
32000
32000
32000
32000
32000
32000
32000
32000
32000
32000
32000
32000
32000
32000
32000
32000
32000
32000
32000
32000
32000
32000
32000
32000
32000
32000
32000
32000
32000
32000
32000
32000
32000
32000
32000
32000
32000
32000
32000
32000
32000
32000.1
32006.8
32245.7
36247.6
52434.6
79946
96818.6
101318
102306
102395
101974
101691
101718
101818
101716
101469
101125
100917
100814
100809
32000
32000
32000
32000
32000
32000
32000
32000
32000
32000
32000
32000
32000
32000
32000
32000
32000
32000
32000
32000
32000
32000
32000
32000
32000
32000
32000
32000
32000
32000
32000
32000
32000
32000
32000
32000
32000
32000
32000
32000
32000
32000
32000
32000
32000
32000
32000
32000
32000
32000
32000.3
32030.8
32783.1
39485.8
60790.1
84288
100566
102695
101685
101477
101473
101829
101750
101534
101156
100890
100747
100698
32000
32000
32000
32000
32000
32000
32000
32000
32000
32000
32000
32000
32000
32000
32000
32000
32000
32000
32000
32000
32000
32000
32000
32000
32000
32000
32000
32000
32000
32000
32000
32000
32000
32000
32000
32000
32000
32000
32000
32000
32000
32000
32000
32000
32000
32000
32000
32000
32000
32000
32000
32000
32001.8
32086.1
33842.8
43812.6
67136.7
90974.6
98855
101904
102343
102278
101867
101511
101042
100785
100649
100575
32000
32000
32000
32000
32000
32000
32000
32000
32000
32000
32000
32000
32000
32000
32000
32000
32000
32000
32000
32000
32000
32000
32000
32000
32000
32000
32000
32000
32000
32000
32000
32000
32000
32000
32000
32000
32000
32000
32000
32000
32000
32000
32000
32000
32000
32000
32000
32000
32000
32000
32000
32000
32000
32000.1
32007.2
32230.2
35044.9
49029.7
71728.6
93776.8
99468.4
100832
100916
101025
100775
100612
100498
100464
32000
32000
32000
32000
32000
32000
32000
32000
32000
32000
32000
32000
32000
32000
32000
32000
32000
32000
32000
32000
32000
32000
32000
32000
32000
32000
32000
32000
32000
32000
32000
32000
32000
32000
32000
32000
32000
32000
32000
32000
32000
32000
32000
32000
32000
32000
32000
32000
32000
32000
32000
32000
32000
32000
32000
32000.3
32017.8
32485.1
36819.6
52587.2
77477.2
93223.6
101000
101713
101118
100755
100716
100599
32000
32000
32000
32000
32000
32000
32000
32000
32000
32000
32000
32000
32000
32000
32000
32000
32000
32000
32000