/*--------------------------------*- C++ -*----------------------------------*\
| =========                 |                                                 |
| \\      /  F ield         | OpenFOAM: The Open Source CFD Toolbox           |
|  \\    /   O peration     | Version:  2306                                  |
|   \\  /    A nd           | Website:  www.openfoam.com                      |
|    \\/     M anipulation  |                                                 |
\*---------------------------------------------------------------------------*/
FoamFile
{
    version     2.0;
    format      ascii;
    arch        "LSB;label=32;scalar=64";
    class       volVectorField;
    location    "4e-05";
    object      U;
}
// * * * * * * * * * * * * * * * * * * * * * * * * * * * * * * * * * * * * * //

dimensions      [0 1 -1 0 0 0 0];

internalField   nonuniform List<vector> 
9032
(
(365.595 155.204 0)
(365.713 155.242 0)
(365.778 155.287 0)
(365.73 155.296 0)
(365.593 155.254 0)
(365.389 155.172 0)
(364.989 155.087 0)
(363.862 154.895 0)
(361.678 154.378 0)
(358.5 153.539 0)
(355.041 152.068 0)
(352.839 150.821 0)
(351.55 149.861 0)
(350.912 149.306 0)
(350.662 149.024 0)
(350.624 148.971 0)
(350.66 148.919 0)
(350.779 148.942 0)
(350.961 149.006 0)
(351.197 149.087 0)
(351.475 149.184 0)
(351.783 149.289 0)
(352.105 149.407 0)
(352.441 149.536 0)
(352.802 149.677 0)
(353.195 149.833 0)
(353.612 150.002 0)
(354.036 150.179 0)
(354.455 150.355 0)
(354.874 150.527 0)
(355.303 150.694 0)
(355.752 150.862 0)
(356.225 151.039 0)
(356.716 151.231 0)
(357.219 151.438 0)
(357.739 151.657 0)
(358.278 151.885 0)
(358.823 152.122 0)
(359.344 152.36 0)
(359.828 152.575 0)
(360.291 152.757 0)
(360.754 152.926 0)
(361.249 153.114 0)
(361.767 153.328 0)
(362.287 153.555 0)
(362.797 153.779 0)
(363.292 153.994 0)
(363.768 154.2 0)
(364.212 154.405 0)
(364.661 154.615 0)
(365.176 154.829 0)
(365.716 155.042 0)
(366.263 155.253 0)
(366.805 155.464 0)
(367.332 155.665 0)
(367.827 155.858 0)
(368.264 156.055 0)
(368.66 156.27 0)
(369.095 156.489 0)
(369.568 156.691 0)
(370.05 156.882 0)
(370.56 157.061 0)
(371.104 157.224 0)
(371.637 157.393 0)
(372.151 157.595 0)
(372.621 157.796 0)
(373.067 158.035 0)
(373.367 158.237 0)
(365.385 155.161 0)
(365.377 155.291 0)
(365.344 155.288 0)
(365.301 155.179 0)
(365.233 155.082 0)
(365.084 154.953 0)
(364.696 154.739 0)
(363.517 154.411 0)
(361.211 153.735 0)
(357.94 152.373 0)
(354.834 151.09 0)
(352.941 150.064 0)
(351.858 149.391 0)
(351.211 149.07 0)
(350.936 149.064 0)
(350.806 149.124 0)
(350.779 149.224 0)
(350.82 149.276 0)
(350.951 149.304 0)
(351.174 149.344 0)
(351.458 149.41 0)
(351.77 149.499 0)
(352.101 149.61 0)
(352.448 149.747 0)
(352.815 149.906 0)
(353.207 150.081 0)
(353.618 150.261 0)
(354.037 150.438 0)
(354.457 150.612 0)
(354.88 150.787 0)
(355.311 150.967 0)
(355.759 151.149 0)
(356.233 151.336 0)
(356.731 151.532 0)
(357.249 151.737 0)
(357.785 151.948 0)
(358.329 152.169 0)
(358.865 152.401 0)
(359.377 152.637 0)
(359.86 152.855 0)
(360.336 153.021 0)
(360.827 153.152 0)
(361.334 153.323 0)
(361.853 153.532 0)
(362.369 153.758 0)
(362.874 153.982 0)
(363.367 154.193 0)
(363.844 154.392 0)
(364.299 154.593 0)
(364.757 154.808 0)
(365.266 155.024 0)
(365.801 155.232 0)
(366.338 155.438 0)
(366.869 155.635 0)
(367.386 155.816 0)
(367.876 155.98 0)
(368.325 156.152 0)
(368.749 156.367 0)
(369.191 156.612 0)
(369.657 156.843 0)
(370.137 157.043 0)
(370.627 157.23 0)
(371.14 157.383 0)
(371.671 157.506 0)
(372.188 157.653 0)
(372.667 157.823 0)
(373.137 158.048 0)
(373.446 158.261 0)
(364.309 155.139 0)
(364.41 154.971 0)
(364.493 154.779 0)
(364.525 154.69 0)
(364.486 154.675 0)
(364.318 154.675 0)
(363.755 154.641 0)
(362.354 154.206 0)
(359.703 153.251 0)
(356.132 151.83 0)
(353.522 150.615 0)
(352.158 149.941 0)
(351.397 149.647 0)
(350.935 149.51 0)
(350.748 149.488 0)
(350.651 149.471 0)
(350.65 149.419 0)
(350.73 149.358 0)
(350.906 149.313 0)
(351.168 149.307 0)
(351.481 149.347 0)
(351.818 149.433 0)
(352.172 149.555 0)
(352.54 149.706 0)
(352.925 149.874 0)
(353.328 150.049 0)
(353.74 150.226 0)
(354.158 150.401 0)
(354.586 150.576 0)
(355.02 150.756 0)
(355.462 150.945 0)
(355.919 151.142 0)
(356.4 151.347 0)
(356.915 151.557 0)
(357.459 151.768 0)
(358.018 151.981 0)
(358.57 152.198 0)
(359.1 152.423 0)
(359.606 152.652 0)
(360.093 152.867 0)
(360.588 153.041 0)
(361.117 153.196 0)
(361.646 153.37 0)
(362.166 153.58 0)
(362.676 153.806 0)
(363.172 154.032 0)
(363.656 154.239 0)
(364.13 154.431 0)
(364.596 154.633 0)
(365.067 154.854 0)
(365.565 155.073 0)
(366.082 155.282 0)
(366.601 155.478 0)
(367.115 155.66 0)
(367.616 155.826 0)
(368.098 155.981 0)
(368.56 156.151 0)
(369.02 156.372 0)
(369.487 156.626 0)
(369.946 156.874 0)
(370.403 157.087 0)
(370.873 157.245 0)
(371.36 157.351 0)
(371.875 157.444 0)
(372.39 157.569 0)
(372.864 157.745 0)
(373.344 157.978 0)
(373.674 158.167 0)
(363.367 154.43 0)
(363.507 154.398 0)
(363.628 154.407 0)
(363.685 154.415 0)
(363.663 154.45 0)
(363.545 154.31 0)
(362.957 154.07 0)
(361.079 153.703 0)
(357.997 152.429 0)
(354.39 150.95 0)
(352.207 149.988 0)
(351.181 149.489 0)
(350.659 149.392 0)
(350.348 149.41 0)
(350.23 149.368 0)
(350.208 149.324 0)
(350.26 149.288 0)
(350.393 149.304 0)
(350.619 149.35 0)
(350.921 149.41 0)
(351.271 149.484 0)
(351.649 149.583 0)
(352.04 149.709 0)
(352.439 149.857 0)
(352.845 150.016 0)
(353.257 150.179 0)
(353.668 150.344 0)
(354.09 150.508 0)
(354.53 150.675 0)
(354.984 150.855 0)
(355.453 151.052 0)
(355.936 151.267 0)
(356.439 151.488 0)
(356.977 151.694 0)
(357.545 151.892 0)
(358.117 152.095 0)
(358.672 152.307 0)
(359.201 152.531 0)
(359.713 152.751 0)
(360.216 152.943 0)
(360.722 153.1 0)
(361.265 153.25 0)
(361.806 153.422 0)
(362.328 153.634 0)
(362.836 153.858 0)
(363.328 154.077 0)
(363.81 154.273 0)
(364.299 154.44 0)
(364.792 154.624 0)
(365.278 154.848 0)
(365.759 155.092 0)
(366.245 155.327 0)
(366.739 155.528 0)
(367.242 155.705 0)
(367.748 155.856 0)
(368.255 155.991 0)
(368.755 156.151 0)
(369.246 156.36 0)
(369.722 156.602 0)
(370.17 156.864 0)
(370.585 157.125 0)
(370.988 157.321 0)
(371.427 157.441 0)
(371.912 157.526 0)
(372.442 157.617 0)
(372.961 157.753 0)
(373.458 157.969 0)
(373.808 158.131 0)
(362.979 154.159 0)
(363.142 154.173 0)
(363.282 154.204 0)
(363.349 154.223 0)
(363.319 154.236 0)
(363.112 154.205 0)
(362.297 154.061 0)
(360.171 153.383 0)
(356.507 151.898 0)
(353.044 150.605 0)
(351.396 149.809 0)
(350.505 149.486 0)
(350.133 149.346 0)
(349.909 149.279 0)
(349.796 149.222 0)
(349.782 149.189 0)
(349.869 149.166 0)
(350.057 149.157 0)
(350.336 149.177 0)
(350.679 149.221 0)
(351.061 149.321 0)
(351.469 149.46 0)
(351.894 149.61 0)
(352.323 149.767 0)
(352.751 149.929 0)
(353.165 150.1 0)
(353.574 150.274 0)
(354 150.44 0)
(354.453 150.608 0)
(354.926 150.798 0)
(355.418 151.011 0)
(355.929 151.237 0)
(356.452 151.459 0)
(357.004 151.658 0)
(357.585 151.847 0)
(358.161 152.041 0)
(358.716 152.259 0)
(359.253 152.493 0)
(359.782 152.716 0)
(360.302 152.909 0)
(360.806 153.069 0)
(361.318 153.218 0)
(361.836 153.395 0)
(362.349 153.606 0)
(362.85 153.823 0)
(363.341 154.034 0)
(363.83 154.223 0)
(364.329 154.382 0)
(364.83 154.555 0)
(365.327 154.778 0)
(365.809 155.027 0)
(366.278 155.275 0)
(366.758 155.492 0)
(367.261 155.681 0)
(367.775 155.845 0)
(368.308 155.975 0)
(368.836 156.111 0)
(369.342 156.309 0)
(369.821 156.546 0)
(370.258 156.814 0)
(370.648 157.083 0)
(370.996 157.314 0)
(371.372 157.461 0)
(371.838 157.556 0)
(372.361 157.666 0)
(372.89 157.792 0)
(373.395 158 0)
(373.752 158.163 0)
(363.106 153.972 0)
(363.223 154.062 0)
(363.299 154.165 0)
(363.303 154.158 0)
(363.243 154.134 0)
(362.966 154.081 0)
(361.939 153.741 0)
(359.209 152.848 0)
(355.031 151.441 0)
(352.011 150.223 0)
(350.725 149.698 0)
(350.106 149.494 0)
(349.796 149.371 0)
(349.623 149.27 0)
(349.528 149.157 0)
(349.548 149.078 0)
(349.661 149.035 0)
(349.862 149.054 0)
(350.138 149.129 0)
(350.482 149.242 0)
(350.88 149.37 0)
(351.3 149.498 0)
(351.749 149.629 0)
(352.213 149.772 0)
(352.668 149.933 0)
(353.099 150.099 0)
(353.52 150.261 0)
(353.953 150.419 0)
(354.41 150.588 0)
(354.892 150.784 0)
(355.403 150.995 0)
(355.934 151.212 0)
(356.472 151.42 0)
(357.028 151.609 0)
(357.601 151.793 0)
(358.164 151.996 0)
(358.715 152.228 0)
(359.258 152.467 0)
(359.798 152.691 0)
(360.326 152.885 0)
(360.836 153.042 0)
(361.333 153.171 0)
(361.809 153.322 0)
(362.273 153.551 0)
(362.753 153.78 0)
(363.244 153.982 0)
(363.741 154.162 0)
(364.243 154.32 0)
(364.745 154.467 0)
(365.232 154.654 0)
(365.704 154.892 0)
(366.168 155.177 0)
(366.639 155.445 0)
(367.133 155.662 0)
(367.648 155.844 0)
(368.189 155.978 0)
(368.742 156.084 0)
(369.259 156.248 0)
(369.747 156.462 0)
(370.186 156.704 0)
(370.568 156.941 0)
(370.893 157.165 0)
(371.199 157.333 0)
(371.611 157.446 0)
(372.105 157.576 0)
(372.571 157.721 0)
(373.057 157.941 0)
(373.387 158.134 0)
(363.322 154.234 0)
(363.28 154.365 0)
(363.29 154.331 0)
(363.264 154.235 0)
(363.164 154.184 0)
(362.785 154.086 0)
(361.335 153.671 0)
(357.908 152.608 0)
(353.8 150.977 0)
(351.232 150.135 0)
(350.191 149.772 0)
(349.702 149.561 0)
(349.445 149.39 0)
(349.299 149.231 0)
(349.248 149.069 0)
(349.326 148.989 0)
(349.501 148.949 0)
(349.75 149.009 0)
(350.052 149.144 0)
(350.391 149.32 0)
(350.758 149.501 0)
(351.164 149.645 0)
(351.618 149.76 0)
(352.107 149.867 0)
(352.584 149.986 0)
(353.031 150.138 0)
(353.467 150.298 0)
(353.91 150.458 0)
(354.371 150.636 0)
(354.86 150.84 0)
(355.384 151.055 0)
(355.932 151.267 0)
(356.489 151.457 0)
(357.052 151.632 0)
(357.613 151.816 0)
(358.161 152.025 0)
(358.703 152.262 0)
(359.243 152.5 0)
(359.783 152.717 0)
(360.314 152.904 0)
(360.823 153.056 0)
(361.302 153.193 0)
(361.75 153.365 0)
(362.189 153.572 0)
(362.63 153.78 0)
(363.127 153.981 0)
(363.636 154.151 0)
(364.158 154.27 0)
(364.653 154.386 0)
(365.118 154.542 0)
(365.57 154.77 0)
(366.032 155.053 0)
(366.491 155.331 0)
(366.939 155.578 0)
(367.432 155.775 0)
(367.963 155.925 0)
(368.497 156.037 0)
(368.996 156.193 0)
(369.461 156.39 0)
(369.883 156.608 0)
(370.253 156.815 0)
(370.58 157 0)
(370.867 157.146 0)
(371.226 157.236 0)
(371.628 157.365 0)
(372.021 157.497 0)
(372.439 157.737 0)
(372.683 157.936 0)
(363.613 154.522 0)
(363.512 154.459 0)
(363.47 154.396 0)
(363.435 154.289 0)
(363.342 154.186 0)
(362.848 154.062 0)
(360.914 153.467 0)
(356.932 152.122 0)
(352.97 150.828 0)
(350.871 150.199 0)
(350.069 149.815 0)
(349.629 149.509 0)
(349.39 149.254 0)
(349.255 149.08 0)
(349.23 148.988 0)
(349.3 148.997 0)
(349.484 149.069 0)
(349.745 149.171 0)
(350.057 149.3 0)
(350.405 149.443 0)
(350.775 149.598 0)
(351.169 149.737 0)
(351.611 149.834 0)
(352.11 149.907 0)
(352.612 149.981 0)
(353.09 150.092 0)
(353.557 150.227 0)
(354.016 150.395 0)
(354.473 150.602 0)
(354.952 150.82 0)
(355.477 151.021 0)
(356.044 151.201 0)
(356.618 151.354 0)
(357.183 151.508 0)
(357.726 151.702 0)
(358.247 151.939 0)
(358.761 152.195 0)
(359.277 152.442 0)
(359.796 152.658 0)
(360.317 152.837 0)
(360.822 152.994 0)
(361.294 153.157 0)
(361.726 153.349 0)
(362.131 153.569 0)
(362.551 153.802 0)
(363.036 153.984 0)
(363.575 154.105 0)
(364.125 154.181 0)
(364.632 154.285 0)
(365.097 154.432 0)
(365.526 154.647 0)
(365.934 154.929 0)
(366.325 155.226 0)
(366.719 155.483 0)
(367.158 155.676 0)
(367.646 155.821 0)
(368.129 155.955 0)
(368.576 156.114 0)
(368.989 156.29 0)
(369.374 156.479 0)
(369.74 156.629 0)
(370.094 156.751 0)
(370.403 156.839 0)
(370.702 156.913 0)
(370.985 157.058 0)
(371.272 157.184 0)
(371.583 157.459 0)
(371.684 157.674 0)
(363.838 154.556 0)
(363.754 154.496 0)
(363.778 154.372 0)
(363.74 154.351 0)
(363.643 154.365 0)
(362.985 154.158 0)
(360.451 153.429 0)
(355.893 152.129 0)
(352.267 150.966 0)
(350.771 150.334 0)
(350.098 149.99 0)
(349.689 149.687 0)
(349.491 149.447 0)
(349.405 149.29 0)
(349.386 149.219 0)
(349.496 149.252 0)
(349.709 149.347 0)
(349.992 149.444 0)
(350.315 149.549 0)
(350.666 149.659 0)
(351.05 149.76 0)
(351.452 149.848 0)
(351.88 149.932 0)
(352.366 150.02 0)
(352.864 150.122 0)
(353.346 150.248 0)
(353.816 150.397 0)
(354.276 150.567 0)
(354.733 150.747 0)
(355.198 150.932 0)
(355.678 151.117 0)
(356.21 151.274 0)
(356.751 151.427 0)
(357.288 151.594 0)
(357.808 151.793 0)
(358.306 152.022 0)
(358.789 152.269 0)
(359.269 152.507 0)
(359.758 152.711 0)
(360.263 152.875 0)
(360.762 153.016 0)
(361.239 153.157 0)
(361.676 153.348 0)
(362.086 153.567 0)
(362.491 153.773 0)
(362.926 153.939 0)
(363.445 154.051 0)
(363.984 154.117 0)
(364.487 154.205 0)
(364.942 154.37 0)
(365.35 154.602 0)
(365.724 154.852 0)
(366.092 155.076 0)
(366.468 155.269 0)
(366.849 155.436 0)
(367.244 155.577 0)
(367.628 155.744 0)
(367.98 155.959 0)
(368.312 156.18 0)
(368.639 156.387 0)
(368.987 156.504 0)
(369.345 156.578 0)
(369.669 156.6 0)
(369.961 156.607 0)
(370.174 156.72 0)
(370.37 156.831 0)
(370.565 157.145 0)
(370.518 157.335 0)
(363.96 154.554 0)
(364.028 154.651 0)
(363.994 154.54 0)
(364.058 154.517 0)
(363.955 154.496 0)
(362.969 154.278 0)
(359.748 153.453 0)
(354.972 151.974 0)
(351.811 150.926 0)
(350.725 150.375 0)
(350.135 149.994 0)
(349.763 149.712 0)
(349.621 149.554 0)
(349.574 149.455 0)
(349.632 149.424 0)
(349.804 149.472 0)
(350.066 149.547 0)
(350.372 149.632 0)
(350.701 149.743 0)
(351.048 149.877 0)
(351.432 149.993 0)
(351.837 150.083 0)
(352.257 150.151 0)
(352.731 150.222 0)
(353.235 150.302 0)
(353.725 150.393 0)
(354.193 150.503 0)
(354.633 150.657 0)
(355.053 150.864 0)
(355.474 151.07 0)
(355.9 151.245 0)
(356.337 151.365 0)
(356.853 151.47 0)
(357.372 151.592 0)
(357.87 151.778 0)
(358.348 152.021 0)
(358.808 152.285 0)
(359.263 152.529 0)
(359.736 152.726 0)
(360.232 152.877 0)
(360.727 153 0)
(361.192 153.13 0)
(361.621 153.297 0)
(362.018 153.493 0)
(362.383 153.683 0)
(362.749 153.834 0)
(363.204 153.928 0)
(363.689 154.016 0)
(364.147 154.142 0)
(364.562 154.324 0)
(364.938 154.546 0)
(365.291 154.785 0)
(365.628 155.002 0)
(365.966 155.159 0)
(366.297 155.289 0)
(366.612 155.411 0)
(366.904 155.575 0)
(367.16 155.79 0)
(367.42 155.98 0)
(367.703 156.141 0)
(368.047 156.215 0)
(368.414 156.256 0)
(368.75 156.24 0)
(369.036 156.233 0)
(369.211 156.338 0)
(369.348 156.442 0)
(369.452 156.79 0)
(369.318 156.934 0)
(364.906 154.157 0)
(364.342 154.682 0)
(364.094 154.504 0)
(364.26 154.58 0)
(364.038 154.655 0)
(362.713 154.359 0)
(358.791 153.313 0)
(353.904 151.789 0)
(351.296 150.896 0)
(350.444 150.434 0)
(349.931 150.084 0)
(349.663 149.85 0)
(349.606 149.734 0)
(349.62 149.675 0)
(349.763 149.65 0)
(349.985 149.682 0)
(350.26 149.738 0)
(350.566 149.802 0)
(350.899 149.884 0)
(351.273 149.985 0)
(351.665 150.102 0)
(352.082 150.206 0)
(352.513 150.285 0)
(352.959 150.354 0)
(353.423 150.441 0)
(353.884 150.556 0)
(354.331 150.685 0)
(354.761 150.836 0)
(355.179 151.008 0)
(355.587 151.185 0)
(355.992 151.339 0)
(356.407 151.477 0)
(356.873 151.547 0)
(357.354 151.626 0)
(357.826 151.781 0)
(358.281 152.034 0)
(358.71 152.315 0)
(359.128 152.567 0)
(359.574 152.76 0)
(360.055 152.907 0)
(360.538 153.027 0)
(360.987 153.16 0)
(361.379 153.346 0)
(361.719 153.565 0)
(362.035 153.741 0)
(362.36 153.828 0)
(362.75 153.842 0)
(363.17 153.849 0)
(363.56 153.943 0)
(363.92 154.134 0)
(364.256 154.359 0)
(364.588 154.558 0)
(364.918 154.703 0)
(365.244 154.799 0)
(365.539 154.899 0)
(365.79 155.018 0)
(365.992 155.217 0)
(366.154 155.471 0)
(366.341 155.678 0)
(366.576 155.837 0)
(366.923 155.894 0)
(367.296 155.943 0)
(367.638 155.945 0)
(367.925 155.957 0)
(368.097 156.053 0)
(368.226 156.151 0)
(368.308 156.48 0)
(368.21 156.549 0)
(366.962 157.043 0)
(364.039 155.072 0)
(363.861 154.497 0)
(364.351 154.793 0)
(363.991 154.818 0)
(362.098 154.362 0)
(357.349 153.07 0)
(352.613 151.618 0)
(350.851 150.786 0)
(350.139 150.377 0)
(349.735 150.107 0)
(349.562 149.971 0)
(349.548 149.905 0)
(349.641 149.864 0)
(349.81 149.852 0)
(350.064 149.853 0)
(350.36 149.856 0)
(350.652 149.875 0)
(350.965 149.934 0)
(351.333 150.03 0)
(351.749 150.132 0)
(352.182 150.225 0)
(352.621 150.309 0)
(353.058 150.406 0)
(353.494 150.535 0)
(353.919 150.699 0)
(354.335 150.88 0)
(354.736 151.061 0)
(355.128 151.228 0)
(355.506 151.39 0)
(355.879 151.537 0)
(356.298 151.627 0)
(356.725 151.699 0)
(357.144 151.798 0)
(357.54 151.962 0)
(357.923 152.152 0)
(358.303 152.336 0)
(358.699 152.496 0)
(359.132 152.634 0)
(359.598 152.751 0)
(360.059 152.868 0)
(360.485 152.996 0)
(360.864 153.154 0)
(361.202 153.31 0)
(361.507 153.43 0)
(361.789 153.497 0)
(362.082 153.53 0)
(362.377 153.578 0)
(362.671 153.682 0)
(362.967 153.858 0)
(363.265 154.059 0)
(363.565 154.259 0)
(363.862 154.432 0)
(364.159 154.556 0)
(364.424 154.665 0)
(364.649 154.776 0)
(364.823 154.95 0)
(364.976 155.143 0)
(365.167 155.295 0)
(365.404 155.41 0)
(365.776 155.444 0)
(366.168 155.492 0)
(366.536 155.507 0)
(366.834 155.575 0)
(367.035 155.7 0)
(367.188 155.834 0)
(367.31 156.141 0)
(367.338 156.178 0)
(378.282 149.605 0)
(363.938 152.566 0)
(364.076 154.293 0)
(364.561 154.831 0)
(363.853 154.81 0)
(361.331 154.244 0)
(355.827 152.714 0)
(351.794 151.415 0)
(350.569 150.781 0)
(350.024 150.416 0)
(349.695 150.214 0)
(349.552 150.158 0)
(349.54 150.113 0)
(349.615 150.077 0)
(349.816 150.04 0)
(350.127 149.958 0)
(350.444 149.872 0)
(350.729 149.852 0)
(351.049 149.9 0)
(351.402 150.01 0)
(351.794 150.131 0)
(352.202 150.227 0)
(352.624 150.299 0)
(353.047 150.4 0)
(353.445 150.554 0)
(353.819 150.74 0)
(354.172 150.933 0)
(354.512 151.094 0)
(354.85 151.203 0)
(355.197 151.276 0)
(355.56 151.333 0)
(355.942 151.381 0)
(356.321 151.427 0)
(356.669 151.501 0)
(356.979 151.637 0)
(357.264 151.831 0)
(357.558 152.028 0)
(357.901 152.186 0)
(358.31 152.316 0)
(358.75 152.464 0)
(359.184 152.628 0)
(359.586 152.808 0)
(359.944 153.003 0)
(360.263 153.181 0)
(360.541 153.321 0)
(360.791 153.388 0)
(361.04 153.377 0)
(361.278 153.366 0)
(361.518 153.422 0)
(361.775 153.563 0)
(362.05 153.735 0)
(362.345 153.9 0)
(362.654 154.031 0)
(362.959 154.141 0)
(363.224 154.27 0)
(363.462 154.401 0)
(363.66 154.582 0)
(363.869 154.751 0)
(364.113 154.872 0)
(364.389 154.96 0)
(364.788 154.98 0)
(365.187 155.037 0)
(365.56 155.099 0)
(365.866 155.264 0)
(366.117 155.441 0)
(366.33 155.638 0)
(366.548 155.899 0)
(366.739 155.948 0)
(490.594 73.8992 0)
(393.956 140.709 0)
(366.875 156.828 0)
(364.59 155.136 0)
(363.655 154.927 0)
(360.31 154.12 0)
(354.448 152.098 0)
(351.325 151.243 0)
(350.47 150.792 0)
(350.069 150.6 0)
(349.79 150.521 0)
(349.618 150.45 0)
(349.545 150.354 0)
(349.59 150.263 0)
(349.771 150.152 0)
(350.044 150.012 0)
(350.326 149.863 0)
(350.619 149.769 0)
(350.907 149.839 0)
(351.19 150.005 0)
(351.491 150.159 0)
(351.822 150.255 0)
(352.181 150.288 0)
(352.551 150.302 0)
(352.908 150.379 0)
(353.235 150.544 0)
(353.512 150.758 0)
(353.77 150.941 0)
(354.04 151.061 0)
(354.341 151.13 0)
(354.675 151.171 0)
(355.026 151.211 0)
(355.36 151.282 0)
(355.646 151.404 0)
(355.881 151.577 0)
(356.096 151.759 0)
(356.352 151.881 0)
(356.693 151.93 0)
(357.118 151.961 0)
(357.571 152.05 0)
(358.012 152.204 0)
(358.424 152.392 0)
(358.789 152.59 0)
(359.113 152.757 0)
(359.399 152.888 0)
(359.655 152.973 0)
(359.892 153.019 0)
(360.107 153.046 0)
(360.336 153.084 0)
(360.588 153.185 0)
(360.873 153.328 0)
(361.176 153.511 0)
(361.491 153.695 0)
(361.799 153.877 0)
(362.09 154.055 0)
(362.382 154.216 0)
(362.664 154.384 0)
(362.996 154.485 0)
(363.329 154.565 0)
(363.67 154.625 0)
(364.08 154.672 0)
(364.452 154.802 0)
(364.827 154.914 0)
(365.14 155.131 0)
(365.461 155.288 0)
(365.76 155.516 0)
(366.114 155.724 0)
(366.429 155.818 0)
(573.808 5.82885 0)
(504.244 72.855 0)
(379.049 149.269 0)
(365.247 152.106 0)
(363.948 155.039 0)
(359.03 153.695 0)
(353.182 151.937 0)
(351.004 151.477 0)
(350.316 151.148 0)
(350.007 151.058 0)
(349.728 150.948 0)
(349.464 150.737 0)
(349.292 150.527 0)
(349.262 150.317 0)
(349.384 150.124 0)
(349.553 149.974 0)
(349.727 149.871 0)
(349.916 149.8 0)
(350.095 149.816 0)
(350.264 149.924 0)
(350.461 150.04 0)
(350.713 150.107 0)
(351 150.13 0)
(351.294 150.149 0)
(351.582 150.216 0)
(351.851 150.344 0)
(352.105 150.483 0)
(352.385 150.561 0)
(352.715 150.572 0)
(353.085 150.559 0)
(353.474 150.558 0)
(353.855 150.584 0)
(354.194 150.67 0)
(354.477 150.833 0)
(354.711 151.04 0)
(354.926 151.225 0)
(355.169 151.349 0)
(355.479 151.426 0)
(355.873 151.497 0)
(356.306 151.616 0)
(356.741 151.787 0)
(357.155 151.997 0)
(357.521 152.229 0)
(357.849 152.434 0)
(358.15 152.601 0)
(358.449 152.706 0)
(358.738 152.771 0)
(359.007 152.819 0)
(359.289 152.864 0)
(359.582 152.959 0)
(359.906 153.106 0)
(360.25 153.293 0)
(360.614 153.466 0)
(360.971 153.65 0)
(361.329 153.835 0)
(361.708 153.998 0)
(362.101 154.143 0)
(362.534 154.235 0)
(362.935 154.321 0)
(363.32 154.407 0)
(363.751 154.47 0)
(364.131 154.583 0)
(364.504 154.674 0)
(364.824 154.89 0)
(365.159 155.102 0)
(365.524 155.389 0)
(365.962 155.617 0)
(366.321 155.788 0)
(579.971 0.0331272 0)
(575.02 5.36135 0)
(497.133 70.7715 0)
(392.177 138.628 0)
(366.896 158.664 0)
(356.939 153.243 0)
(352.286 151.989 0)
(350.466 151.746 0)
(349.535 151.37 0)
(349.187 151.203 0)
(348.896 150.878 0)
(348.592 150.46 0)
(348.389 150.126 0)
(348.262 149.954 0)
(348.213 149.893 0)
(348.211 149.822 0)
(348.268 149.69 0)
(348.383 149.536 0)
(348.505 149.475 0)
(348.638 149.481 0)
(348.811 149.471 0)
(349.047 149.444 0)
(349.323 149.443 0)
(349.605 149.486 0)
(349.87 149.603 0)
(350.122 149.811 0)
(350.398 150.034 0)
(350.716 150.2 0)
(351.104 150.265 0)
(351.562 150.254 0)
(352.034 150.247 0)
(352.473 150.302 0)
(352.864 150.427 0)
(353.219 150.603 0)
(353.535 150.804 0)
(353.808 150.987 0)
(354.068 151.099 0)
(354.384 151.133 0)
(354.791 151.14 0)
(355.219 151.216 0)
(355.642 151.391 0)
(356.049 151.631 0)
(356.423 151.892 0)
(356.776 152.121 0)
(357.121 152.311 0)
(357.49 152.449 0)
(357.857 152.562 0)
(358.228 152.638 0)
(358.61 152.683 0)
(358.983 152.756 0)
(359.379 152.867 0)
(359.779 153.042 0)
(360.184 153.238 0)
(360.575 153.485 0)
(360.992 153.709 0)
(361.433 153.9 0)
(361.894 154.06 0)
(362.383 154.168 0)
(362.819 154.275 0)
(363.268 154.336 0)
(363.702 154.389 0)
(364.066 154.519 0)
(364.414 154.636 0)
(364.716 154.941 0)
(365.078 155.181 0)
(365.486 155.438 0)
(365.966 155.643 0)
(366.348 155.821 0)
(580 1.35012e-05 0)
(579.977 0.0256164 0)
(574.79 5.15065 0)
(504.065 66.3007 0)
(389.55 142.576 0)
(357.811 151.493 0)
(351.403 153.45 0)
(348.116 152.126 0)
(347.394 151.188 0)
(347.364 150.685 0)
(346.987 150.171 0)
(346.655 149.793 0)
(346.347 149.673 0)
(346.12 149.746 0)
(345.972 149.758 0)
(345.959 149.651 0)
(346.08 149.452 0)
(346.306 149.18 0)
(346.544 148.96 0)
(346.738 148.904 0)
(346.912 148.992 0)
(347.153 149.078 0)
(347.463 149.135 0)
(347.814 149.2 0)
(348.175 149.332 0)
(348.561 149.526 0)
(348.987 149.709 0)
(349.423 149.836 0)
(349.881 149.872 0)
(350.389 149.851 0)
(350.923 149.825 0)
(351.428 149.859 0)
(351.893 149.985 0)
(352.335 150.175 0)
(352.742 150.389 0)
(353.088 150.577 0)
(353.368 150.717 0)
(353.642 150.83 0)
(354.001 150.919 0)
(354.41 151.028 0)
(354.836 151.181 0)
(355.261 151.39 0)
(355.679 151.623 0)
(356.084 151.856 0)
(356.485 152.071 0)
(356.925 152.241 0)
(357.372 152.397 0)
(357.844 152.508 0)
(358.309 152.582 0)
(358.76 152.651 0)
(359.197 152.765 0)
(359.622 152.969 0)
(360.061 153.217 0)
(360.499 153.485 0)
(360.963 153.708 0)
(361.438 153.896 0)
(361.938 154.048 0)
(362.44 154.162 0)
(362.899 154.265 0)
(363.368 154.327 0)
(363.768 154.434 0)
(364.143 154.57 0)
(364.482 154.746 0)
(364.787 154.998 0)
(365.143 155.197 0)
(365.583 155.406 0)
(366.072 155.605 0)
(366.459 155.794 0)
(580 4.3011e-09 0)
(580 1.06214e-05 0)
(579.978 0.0249913 0)
(575.755 4.25979 0)
(510.462 62.2166 0)
(375.536 140.104 0)
(348.936 155.513 0)
(344.483 151.048 0)
(345.485 149.727 0)
(345.088 149.57 0)
(344.307 149.184 0)
(343.934 149.044 0)
(343.735 148.96 0)
(343.59 148.992 0)
(343.596 148.986 0)
(343.791 148.93 0)
(344.118 148.827 0)
(344.515 148.685 0)
(344.88 148.618 0)
(345.185 148.611 0)
(345.483 148.581 0)
(345.883 148.511 0)
(346.335 148.501 0)
(346.772 148.672 0)
(347.245 148.964 0)
(347.747 149.246 0)
(348.257 149.462 0)
(348.735 149.586 0)
(349.186 149.642 0)
(349.649 149.684 0)
(350.129 149.728 0)
(350.627 149.811 0)
(351.131 149.958 0)
(351.641 150.131 0)
(352.129 150.307 0)
(352.551 150.468 0)
(352.873 150.625 0)
(353.151 150.766 0)
(353.505 150.854 0)
(353.942 150.917 0)
(354.405 151.012 0)
(354.867 151.208 0)
(355.335 151.452 0)
(355.783 151.731 0)
(356.23 151.995 0)
(356.713 152.216 0)
(357.224 152.4 0)
(357.753 152.535 0)
(358.268 152.611 0)
(358.771 152.666 0)
(359.241 152.773 0)
(359.697 152.958 0)
(360.157 153.196 0)
(360.625 153.449 0)
(361.113 153.661 0)
(361.596 153.842 0)
(362.101 153.994 0)
(362.585 154.124 0)
(363.045 154.25 0)
(363.498 154.35 0)
(363.886 154.495 0)
(364.263 154.647 0)
(364.585 154.846 0)
(364.907 155.04 0)
(365.256 155.207 0)
(365.687 155.369 0)
(366.177 155.529 0)
(366.571 155.709 0)
(580 2.2652e-12 0)
(580 3.59347e-09 0)
(580 9.23059e-06 0)
(579.984 0.0176107 0)
(576.631 3.53983 0)
(492.995 69.2914 0)
(373.218 143.02 0)
(342.74 148.46 0)
(343.699 149.822 0)
(342.001 149.116 0)
(341.138 149.005 0)
(341.314 149.024 0)
(341.449 148.894 0)
(341.637 148.623 0)
(341.997 148.462 0)
(342.44 148.458 0)
(342.962 148.458 0)
(343.537 148.396 0)
(344.085 148.292 0)
(344.553 148.143 0)
(344.879 148.081 0)
(345.243 148.252 0)
(345.784 148.529 0)
(346.342 148.841 0)
(346.903 149.114 0)
(347.466 149.306 0)
(347.988 149.405 0)
(348.468 149.441 0)
(348.927 149.464 0)
(349.344 149.537 0)
(349.716 149.67 0)
(350.141 149.806 0)
(350.663 149.923 0)
(351.216 150.033 0)
(351.748 150.181 0)
(352.233 150.337 0)
(352.627 150.498 0)
(352.954 150.66 0)
(353.302 150.792 0)
(353.734 150.896 0)
(354.227 151.021 0)
(354.748 151.213 0)
(355.283 151.444 0)
(355.794 151.693 0)
(356.284 151.944 0)
(356.795 152.176 0)
(357.345 152.367 0)
(357.892 152.509 0)
(358.422 152.587 0)
(358.946 152.637 0)
(359.431 152.742 0)
(359.907 152.924 0)
(360.377 153.147 0)
(360.834 153.374 0)
(361.275 153.573 0)
(361.719 153.761 0)
(362.205 153.934 0)
(362.674 154.099 0)
(363.134 154.259 0)
(363.578 154.404 0)
(363.967 154.585 0)
(364.345 154.753 0)
(364.678 154.943 0)
(365.012 155.098 0)
(365.359 155.232 0)
(365.793 155.356 0)
(366.286 155.479 0)
(366.685 155.657 0)
(580 1.97734e-14 0)
(580 6.66734e-13 0)
(580 3.01747e-09 0)
(580 5.96423e-06 0)
(579.987 0.0145444 0)
(575.047 4.58617 0)
(490.382 82.7449 0)
(344.405 147.23 0)
(340.484 152.348 0)
(338.804 148.439 0)
(339.86 148.38 0)
(340.475 148.541 0)
(340.784 148.283 0)
(341.104 147.998 0)
(341.45 148.113 0)
(341.951 148.257 0)
(342.567 148.34 0)
(343.225 148.287 0)
(343.807 148.203 0)
(344.256 148.182 0)
(344.649 148.228 0)
(345.165 148.371 0)
(345.774 148.571 0)
(346.387 148.78 0)
(346.96 148.992 0)
(347.479 149.153 0)
(347.968 149.237 0)
(348.418 149.306 0)
(348.83 149.42 0)
(349.215 149.572 0)
(349.564 149.742 0)
(349.892 149.908 0)
(350.346 150.041 0)
(350.904 150.128 0)
(351.481 150.206 0)
(352.021 150.334 0)
(352.507 150.499 0)
(352.943 150.678 0)
(353.338 150.853 0)
(353.78 150.989 0)
(354.294 151.109 0)
(354.858 151.239 0)
(355.442 151.415 0)
(356.014 151.62 0)
(356.544 151.826 0)
(357.045 152.036 0)
(357.586 152.237 0)
(358.12 152.404 0)
(358.623 152.528 0)
(359.122 152.615 0)
(359.606 152.715 0)
(360.078 152.869 0)
(360.536 153.072 0)
(360.981 153.281 0)
(361.416 153.501 0)
(361.861 153.717 0)
(362.335 153.917 0)
(362.799 154.111 0)
(363.26 154.293 0)
(363.693 154.473 0)
(364.091 154.668 0)
(364.474 154.854 0)
(364.832 155.033 0)
(365.194 155.176 0)
(365.552 155.286 0)
(365.99 155.391 0)
(366.477 155.47 0)
(366.918 155.651 0)
(580 4.11981e-13 0)
(580 3.345e-13 0)
(580 7.75689e-13 0)
(580 2.37866e-09 0)
(580 6.29982e-06 0)
(579.977 0.0275177 0)
(573.966 6.79622 0)
(448.635 95.1173 0)
(359.385 144.463 0)
(339.878 147.29 0)
(341.205 149.296 0)
(340.329 148.649 0)
(340.584 148.372 0)
(340.987 148.2 0)
(341.412 148.093 0)
(341.943 148.164 0)
(342.653 148.144 0)
(343.281 148.138 0)
(343.758 148.21 0)
(344.183 148.292 0)
(344.657 148.323 0)
(345.267 148.379 0)
(345.883 148.524 0)
(346.461 148.74 0)
(346.986 148.965 0)
(347.444 149.149 0)
(347.888 149.263 0)
(348.342 149.366 0)
(348.769 149.511 0)
(349.169 149.68 0)
(349.529 149.849 0)
(349.839 150.007 0)
(350.2 150.096 0)
(350.737 150.162 0)
(351.356 150.226 0)
(351.971 150.319 0)
(352.546 150.473 0)
(353.064 150.668 0)
(353.53 150.876 0)
(354.001 151.061 0)
(354.52 151.209 0)
(355.072 151.334 0)
(355.649 151.451 0)
(356.231 151.591 0)
(356.783 151.748 0)
(357.318 151.921 0)
(357.854 152.11 0)
(358.367 152.299 0)
(358.859 152.459 0)
(359.344 152.583 0)
(359.826 152.714 0)
(360.295 152.895 0)
(360.765 153.091 0)
(361.236 153.304 0)
(361.707 153.525 0)
(362.169 153.749 0)
(362.625 153.957 0)
(363.072 154.16 0)
(363.516 154.349 0)
(363.935 154.546 0)
(364.336 154.747 0)
(364.732 154.938 0)
(365.127 155.109 0)
(365.523 155.244 0)
(365.91 155.334 0)
(366.344 155.438 0)
(366.832 155.516 0)
(367.317 155.706 0)
(580 2.8414e-14 0)
(580 1.63478e-13 0)
(580 3.98113e-13 0)
(580 1.14003e-12 0)
(580 3.9714e-09 0)
(580 1.26033e-05 0)
(579.957 0.0566403 0)
(567.188 11.1288 0)
(440.816 105.771 0)
(342.787 153.433 0)
(340.196 150.638 0)
(339.692 148.106 0)
(340.476 148.476 0)
(340.985 148.367 0)
(341.525 148.092 0)
(342.191 147.936 0)
(342.804 148.01 0)
(343.329 148.217 0)
(343.75 148.437 0)
(344.112 148.513 0)
(344.61 148.479 0)
(345.282 148.439 0)
(345.943 148.5 0)
(346.527 148.725 0)
(347.03 148.972 0)
(347.448 149.194 0)
(347.825 149.375 0)
(348.267 149.504 0)
(348.729 149.615 0)
(349.173 149.757 0)
(349.578 149.909 0)
(349.918 150.035 0)
(350.257 150.126 0)
(350.75 150.187 0)
(351.368 150.258 0)
(352.031 150.352 0)
(352.675 150.489 0)
(353.258 150.678 0)
(353.808 150.882 0)
(354.329 151.068 0)
(354.855 151.221 0)
(355.38 151.338 0)
(355.893 151.432 0)