/*--------------------------------*- C++ -*----------------------------------*\
| =========                 |                                                 |
| \\      /  F ield         | OpenFOAM: The Open Source CFD Toolbox           |
|  \\    /   O peration     | Version:  2306                                  |
|   \\  /    A nd           | Website:  www.openfoam.com                      |
|    \\/     M anipulation  |                                                 |
\*---------------------------------------------------------------------------*/
FoamFile
{
    version     2.0;
    format      ascii;
    arch        "LSB;label=32;scalar=64";
    class       volVectorField;
    location    "6e-05";
    object      U;
}
// * * * * * * * * * * * * * * * * * * * * * * * * * * * * * * * * * * * * * //

dimensions      [0 1 -1 0 0 0 0];

internalField   nonuniform List<vector> 
9044
(
(580 1.87073e-13 0)
(580 2.44301e-13 0)
(580 6.42551e-13 0)
(580 6.13483e-13 0)
(580 5.93522e-13 0)
(580 5.99668e-13 0)
(580 3.39663e-13 0)
(580 2.22942e-13 0)
(580 2.00068e-13 0)
(580 1.72421e-13 0)
(580 -2.61664e-13 0)
(580 -3.06391e-13 0)
(580 -1.02815e-12 0)
(580 -1.03246e-12 0)
(580 -3.95572e-13 0)
(580 -4.5344e-13 0)
(580 -1.58749e-13 0)
(580 -1.85863e-13 0)
(580 -4.29138e-13 0)
(580 -5.06121e-13 0)
(580 2.02593e-13 0)
(580 1.15681e-13 0)
(580 1.264e-12 0)
(580 1.30118e-12 0)
(580 2.10764e-12 0)
(580 2.251e-12 0)
(580 2.56836e-12 0)
(580 2.95678e-12 0)
(580 1.90613e-12 0)
(580 2.03631e-12 0)
(580 1.33735e-12 0)
(580 1.29057e-12 0)
(580 4.32923e-12 0)
(580 4.45515e-12 0)
(580 4.58512e-12 0)
(580 4.2553e-12 0)
(580 3.24167e-12 0)
(580 2.87245e-12 0)
(580 2.78715e-12 0)
(580 2.98124e-12 0)
(580 3.11474e-12 0)
(580 3.50042e-12 0)
(580 4.02948e-12 0)
(580 4.4403e-12 0)
(580 -2.91305e-14 0)
(580 7.61383e-13 0)
(580 1.3644e-12 0)
(580 1.62677e-12 0)
(580 1.68927e-12 0)
(580 1.66996e-12 0)
(580 1.50483e-12 0)
(580 9.69939e-13 0)
(580 2.23229e-13 0)
(580 3.66095e-13 0)
(580 3.07372e-13 0)
(580 1.42371e-13 0)
(580 2.99672e-14 0)
(580 1.06454e-12 0)
(580 1.12873e-12 0)
(580 1.13109e-12 0)
(580 1.14575e-12 0)
(580 1.43082e-12 0)
(580 1.78233e-12 0)
(580 1.80766e-12 0)
(580 1.60609e-12 0)
(580 1.57399e-12 0)
(580 1.36959e-12 0)
(580 1.01974e-12 0)
(580 7.07434e-13 0)
(580 8.12407e-13 0)
(580 7.54733e-13 0)
(580 8.91291e-13 0)
(580 1.05246e-12 0)
(580 1.46013e-12 0)
(580 2.66121e-12 0)
(580 3.78698e-12 0)
(580 4.11598e-12 0)
(580 3.90268e-12 0)
(580 3.45924e-12 0)
(580 3.42371e-12 0)
(580 3.37334e-12 0)
(580 3.30218e-12 0)
(580 3.17221e-12 0)
(580 3.25323e-12 0)
(580 2.94742e-12 0)
(580 2.65054e-12 0)
(580 2.63882e-12 0)
(580 2.61573e-12 0)
(580 2.80139e-12 0)
(580 3.4313e-12 0)
(580 3.47411e-12 0)
(580 3.50819e-12 0)
(580 3.95428e-12 0)
(580 4.57897e-12 0)
(580 5.33119e-12 0)
(580 5.58985e-12 0)
(580 5.44816e-12 0)
(580 5.02569e-12 0)
(580 4.44053e-12 0)
(580 4.18714e-12 0)
(580 4.39134e-12 0)
(580 4.21655e-12 0)
(580 3.75098e-12 0)
(580 3.67462e-12 0)
(580 3.69901e-12 0)
(580 3.50173e-12 0)
(580 3.02301e-12 0)
(580 2.52337e-12 0)
(580 2.17469e-12 0)
(580 2.80481e-12 0)
(580 3.40706e-12 0)
(580 4.06917e-12 0)
(580 4.5355e-12 0)
(580 4.87667e-12 0)
(580 -6.30816e-13 0)
(580 -5.89747e-13 0)
(580 7.17808e-14 0)
(580 8.35369e-13 0)
(580 6.18144e-13 0)
(580 4.44903e-13 0)
(580 3.74412e-13 0)
(580 2.67104e-13 0)
(580 3.22557e-13 0)
(580 2.64853e-13 0)
(580 -1.43742e-13 0)
(580 -2.03066e-13 0)
(580 -5.87767e-14 0)
(580 4.99739e-14 0)
(580 6.26521e-13 0)
(580 1.28343e-12 0)
(580 1.55931e-12 0)
(580 1.85669e-12 0)
(580 2.06007e-12 0)
(580 1.71177e-12 0)
(580 1.59728e-12 0)
(580 1.2566e-12 0)
(580 1.46285e-12 0)
(580 1.05236e-12 0)
(580 7.39625e-13 0)
(580 -1.1277e-14 0)
(580 -2.12689e-13 0)
(580 -3.27802e-13 0)
(580 4.23887e-13 0)
(580 1.28388e-12 0)
(580 1.46342e-12 0)
(580 1.41056e-12 0)
(580 1.15786e-12 0)
(580 1.91429e-12 0)
(580 2.04939e-12 0)
(580 2.24343e-12 0)
(580 2.26123e-12 0)
(580 2.30826e-12 0)
(580 2.30743e-12 0)
(580 2.68857e-12 0)
(580 3.28194e-12 0)
(580 3.59955e-12 0)
(580 2.85521e-12 0)
(580 2.61819e-12 0)
(580 2.53688e-12 0)
(580 2.51274e-12 0)
(580 2.49865e-12 0)
(580 2.79027e-12 0)
(580 3.60485e-12 0)
(580 4.51305e-12 0)
(580 4.89742e-12 0)
(580 4.80311e-12 0)
(580 4.63209e-12 0)
(580 4.31586e-12 0)
(580 4.5476e-12 0)
(580 4.85456e-12 0)
(580 5.08322e-12 0)
(580 4.98436e-12 0)
(580 4.70979e-12 0)
(580 4.34125e-12 0)
(580 4.03235e-12 0)
(580 3.57272e-12 0)
(580 3.24388e-12 0)
(580 2.80184e-12 0)
(580 1.95717e-12 0)
(580 1.90608e-12 0)
(580 2.05162e-12 0)
(580 2.04144e-12 0)
(580 2.06566e-12 0)
(580 2.665e-12 0)
(580 2.2018e-14 0)
(580 -2.25337e-13 0)
(580 -9.26405e-14 0)
(580 -1.53631e-13 0)
(580 1.29797e-13 0)
(580 7.10697e-14 0)
(580 1.1117e-13 0)
(580 3.07543e-13 0)
(580 6.16596e-13 0)
(580 4.19896e-13 0)
(580 2.31057e-13 0)
(580 5.2727e-14 0)
(580 4.8774e-14 0)
(580 8.2244e-14 0)
(580 7.99318e-14 0)
(580 3.55298e-13 0)
(580 1.39558e-12 0)
(580 1.74958e-12 0)
(580 1.96786e-12 0)
(580 1.3438e-12 0)
(580 1.15478e-12 0)
(580 9.52689e-13 0)
(580 1.50967e-13 0)
(580 4.00566e-14 0)
(580 -4.64603e-13 0)
(580 -7.38455e-13 0)
(580 -1.27928e-12 0)
(580 -1.57237e-12 0)
(580 -1.59098e-12 0)
(580 -1.11299e-12 0)
(580 -4.40194e-13 0)
(580 -5.49246e-13 0)
(580 -7.47566e-13 0)
(580 2.45662e-13 0)
(580 5.59846e-13 0)
(580 6.16762e-13 0)
(580 1.07281e-12 0)
(580 1.40924e-12 0)
(580 1.19794e-12 0)
(580 1.80307e-12 0)
(580 3.0658e-12 0)
(580 2.64622e-12 0)
(580 2.06835e-12 0)
(580 2.12226e-12 0)
(580 2.18058e-12 0)
(580 1.97745e-12 0)
(580 1.86512e-12 0)
(580 2.30589e-12 0)
(580 2.81195e-12 0)
(580 2.92743e-12 0)
(580 3.01366e-12 0)
(580 3.35757e-12 0)
(580 4.02135e-12 0)
(580 4.42382e-12 0)
(580 4.9241e-12 0)
(580 5.19069e-12 0)
(580 4.70129e-12 0)
(580 4.42116e-12 0)
(580 4.35858e-12 0)
(580 4.30066e-12 0)
(580 4.26622e-12 0)
(580 3.79662e-12 0)
(580 3.39629e-12 0)
(580 2.98168e-12 0)
(580 2.67505e-12 0)
(580 1.73926e-12 0)
(580 7.4717e-13 0)
(580 1.0931e-12 0)
(580 1.45941e-12 0)
(580 2.04159e-12 0)
(580 8.866e-13 0)
(580 8.19334e-13 0)
(580 5.88048e-13 0)
(580 2.59365e-13 0)
(580 3.20059e-13 0)
(580 6.27687e-13 0)
(580 8.52734e-13 0)
(580 1.29381e-12 0)
(580 1.13142e-12 0)
(580 1.01101e-12 0)
(580 9.84981e-13 0)
(580 1.03972e-12 0)
(580 6.87466e-13 0)
(580 3.8582e-13 0)
(580 6.94132e-14 0)
(580 -1.56748e-13 0)
(580 -2.60009e-13 0)
(580 -2.92442e-13 0)
(580 -2.49396e-13 0)
(580 -2.51504e-13 0)
(580 -4.06953e-13 0)
(580 -8.10392e-13 0)
(580 -1.68393e-12 0)
(580 -2.07816e-12 0)
(580 -2.2505e-12 0)
(580 -2.30296e-12 0)
(580 -2.40561e-12 0)
(580 -2.61009e-12 0)
(580 -2.1024e-12 0)
(580 -2.17267e-12 0)
(580 -2.40291e-12 0)
(580 -2.62228e-12 0)
(580 -2.73272e-12 0)
(580 -1.86723e-12 0)
(580 -1.16054e-12 0)
(580 -7.16514e-13 0)
(580 2.36053e-13 0)
(580 1.55784e-12 0)
(580 2.89038e-12 0)
(580 3.22661e-12 0)
(580 2.02739e-12 0)
(580 1.63108e-12 0)
(580 1.49553e-12 0)
(580 1.11584e-12 0)
(580 2.18714e-13 0)
(580 -2.95193e-13 0)
(580 -1.92213e-13 0)
(580 1.96733e-13 0)
(580 5.34131e-13 0)
(580 9.81071e-13 0)
(580 8.71734e-13 0)
(580 1.04227e-12 0)
(580 1.69728e-12 0)
(580 2.03783e-12 0)
(580 2.99241e-12 0)
(580 3.31025e-12 0)
(580 3.86388e-12 0)
(580 4.201e-12 0)
(580 4.09135e-12 0)
(580 3.99545e-12 0)
(580 3.51462e-12 0)
(580 3.35805e-12 0)
(580 3.34057e-12 0)
(580 3.41229e-12 0)
(580 3.01914e-12 0)
(580 1.86299e-12 0)
(580 1.26258e-12 0)
(580 8.3726e-13 0)
(580 8.98575e-13 0)
(580 3.99944e-13 0)
(580 5.82072e-13 0)
(580 5.30636e-13 0)
(580 2.75421e-13 0)
(580 -2.15765e-13 0)
(580 -2.27461e-13 0)
(580 1.55497e-14 0)
(580 6.76485e-13 0)
(580 9.84939e-13 0)
(580 9.1326e-13 0)
(580 7.2029e-13 0)
(580 6.1252e-13 0)
(580 4.83562e-13 0)
(580 3.12872e-13 0)
(580 3.14947e-13 0)
(580 4.61683e-14 0)
(580 -1.79506e-13 0)
(580 -3.94696e-13 0)
(580 -2.78157e-13 0)
(580 -1.20265e-12 0)
(580 -1.55887e-12 0)
(580 -1.98302e-12 0)
(580 -2.33135e-12 0)
(580 -2.3601e-12 0)
(580 -2.48112e-12 0)
(580 -2.74846e-12 0)
(580 -2.74429e-12 0)
(580 -2.62223e-12 0)
(580 -2.23357e-12 0)
(580 -2.36424e-12 0)
(580 -2.37043e-12 0)
(580 -2.58506e-12 0)
(580 -3.13985e-12 0)
(580 -3.12721e-12 0)
(580 -2.98031e-12 0)
(580 -2.75082e-12 0)
(580 -1.9024e-12 0)
(580 -5.70948e-13 0)
(580 4.13982e-13 0)
(580 8.28998e-13 0)
(580 9.59657e-13 0)
(580 8.47861e-13 0)
(580 5.99603e-13 0)
(580 7.64856e-14 0)
(580 -5.45455e-13 0)
(580 -8.09136e-13 0)
(580 -6.28506e-13 0)
(580 -6.58447e-13 0)
(580 -8.14557e-13 0)
(580 -8.41476e-13 0)
(580 -7.46203e-13 0)
(580 -4.32105e-13 0)
(580 -3.39441e-13 0)
(580 2.24617e-13 0)
(580 9.35499e-13 0)
(580 1.46796e-12 0)
(580 1.39573e-12 0)
(580 1.1793e-12 0)
(580 1.56686e-12 0)
(580 2.71421e-12 0)
(580 3.02492e-12 0)
(580 2.84944e-12 0)
(580 3.08709e-12 0)
(580 3.11535e-12 0)
(580 3.26359e-12 0)
(580 3.04631e-12 0)
(580 2.81162e-12 0)
(580 2.88765e-12 0)
(580 1.8733e-12 0)
(580 2.1273e-13 0)
(580 -1.19932e-12 0)
(580 5.11089e-13 0)
(580 1.25011e-13 0)
(580 -4.15192e-14 0)
(580 1.87439e-13 0)
(580 5.85978e-13 0)
(580 3.00471e-13 0)
(580 7.44043e-14 0)
(580 -1.19205e-13 0)
(580 3.67209e-14 0)
(580 -5.35347e-14 0)
(580 -1.69671e-13 0)
(580 -2.96523e-13 0)
(580 -4.80061e-13 0)
(580 -5.63817e-13 0)
(580 -5.57401e-13 0)
(580 -1.02716e-12 0)
(580 -1.33563e-12 0)
(580 -1.80398e-12 0)
(580 -1.79179e-12 0)
(580 -2.77978e-12 0)
(580 -3.21469e-12 0)
(580 -3.26364e-12 0)
(580 -3.37624e-12 0)
(580 -3.41839e-12 0)
(580 -3.65062e-12 0)
(580 -4.01659e-12 0)
(580 -3.70567e-12 0)
(580 -3.09127e-12 0)
(580 -3.00734e-12 0)
(580 -2.89294e-12 0)
(580 -3.25687e-12 0)
(580 -3.30287e-12 0)
(580 -3.15324e-12 0)
(580 -3.02228e-12 0)
(580 -3.07936e-12 0)
(580 -2.51999e-12 0)
(580 -2.36666e-12 0)
(580 -2.11064e-12 0)
(580 -1.74343e-12 0)
(580 -1.03668e-12 0)
(580 -5.31485e-13 0)
(580 -4.61606e-13 0)
(580 -2.81445e-13 0)
(580 -1.83929e-13 0)
(580 -6.19957e-14 0)
(580 -2.59049e-13 0)
(580 -6.68347e-13 0)
(580 -6.54843e-13 0)
(580 -9.73876e-13 0)
(580 -1.06783e-12 0)
(580 -8.85915e-13 0)
(580 -5.318e-13 0)
(580 -4.43839e-13 0)
(580 -4.51452e-13 0)
(580 -6.29998e-13 0)
(580 -4.94928e-13 0)
(580 -5.78454e-14 0)
(580 3.29199e-13 0)
(580 8.72271e-13 0)
(580 1.44974e-12 0)
(580 1.42118e-12 0)
(580 1.35153e-12 0)
(580 1.54512e-12 0)
(580 1.90484e-12 0)
(580 2.20446e-12 0)
(580 2.3221e-12 0)
(580 1.81568e-12 0)
(580 1.31096e-12 0)
(580 3.11887e-13 0)
(580 -4.63973e-13 0)
(580 -1.06215e-13 0)
(580 2.07573e-14 0)
(580 1.25383e-13 0)
(580 2.04453e-13 0)
(580 1.63744e-13 0)
(580 1.84445e-14 0)
(580 -1.68806e-13 0)
(580 -4.73078e-13 0)
(580 -7.98362e-13 0)
(580 -1.19902e-12 0)
(580 -1.31289e-12 0)
(580 -1.50931e-12 0)
(580 -1.75099e-12 0)
(580 -2.23572e-12 0)
(580 -2.44561e-12 0)
(580 -2.13129e-12 0)
(580 -1.94822e-12 0)
(580 -1.72284e-12 0)
(580 -1.42822e-12 0)
(580 -1.67217e-12 0)
(580 -2.34595e-12 0)
(580 -2.42557e-12 0)
(580 -2.48221e-12 0)
(580 -2.38343e-12 0)
(580 -2.17175e-12 0)
(580 -2.19073e-12 0)
(580 -2.36929e-12 0)
(580 -2.62556e-12 0)
(580 -2.93713e-12 0)
(580 -3.24345e-12 0)
(580 -3.06854e-12 0)
(580 -3.23314e-12 0)
(580 -3.26013e-12 0)
(580 -2.73673e-12 0)
(580 -2.50218e-12 0)
(580 -2.84364e-12 0)
(580 -2.8827e-12 0)
(580 -2.95302e-12 0)
(580 -3.33065e-12 0)
(580 -3.07373e-12 0)
(580 -2.33915e-12 0)
(580 -2.13004e-12 0)
(580 -1.81364e-12 0)
(580 -1.5711e-12 0)
(580 -1.52128e-12 0)
(580 -1.57217e-12 0)
(580 -1.60087e-12 0)
(580 -1.7123e-12 0)
(580 -2.05639e-12 0)
(580 -1.84153e-12 0)
(580 -1.70892e-12 0)
(580 -1.52671e-12 0)
(580 -1.47149e-12 0)
(580 -1.72551e-12 0)
(580 -1.88343e-12 0)
(580 -2.0713e-12 0)
(580 -2.20912e-12 0)
(580 -2.31691e-12 0)
(580 -2.03187e-12 0)
(580 -1.78618e-12 0)
(580 -1.54982e-12 0)
(580 -1.06715e-12 0)
(580 -1.41392e-13 0)
(580 7.94111e-13 0)
(580 1.14631e-12 0)
(580 4.89072e-13 0)
(580 -5.32407e-16 0)
(580 -2.0368e-13 0)
(580 -6.46698e-13 0)
(580 -1.00702e-12 0)
(580 -1.27165e-13 0)
(580 -7.39981e-14 0)
(580 -5.77279e-14 0)
(580 6.86381e-14 0)
(580 -5.30083e-14 0)
(580 -1.49148e-13 0)
(580 -3.28272e-13 0)
(580 -4.68162e-13 0)
(580 -7.66841e-13 0)
(580 -8.88929e-13 0)
(580 -1.15861e-12 0)
(580 -1.53513e-12 0)
(580 -1.82194e-12 0)
(580 -1.98251e-12 0)
(580 -2.06337e-12 0)
(580 -2.03393e-12 0)
(580 -2.07069e-12 0)
(580 -2.1301e-12 0)
(580 -2.39415e-12 0)
(580 -2.34745e-12 0)
(580 -2.28178e-12 0)
(580 -2.26954e-12 0)
(580 -2.20676e-12 0)
(580 -2.03617e-12 0)
(580 -1.62201e-12 0)
(580 -1.55298e-12 0)
(580 -1.73062e-12 0)
(580 -2.23942e-12 0)
(580 -2.73885e-12 0)
(580 -2.93622e-12 0)
(580 -3.03944e-12 0)
(580 -2.90878e-12 0)
(580 -2.90573e-12 0)
(580 -2.52785e-12 0)
(580 -1.93622e-12 0)
(580 -2.0609e-12 0)
(580 -2.52263e-12 0)
(580 -2.80284e-12 0)
(580 -2.85119e-12 0)
(580 -3.11879e-12 0)
(580 -3.32353e-12 0)
(580 -3.08956e-12 0)
(580 -2.92597e-12 0)
(580 -2.64029e-12 0)
(580 -2.48899e-12 0)
(580 -2.25845e-12 0)
(580 -1.94859e-12 0)
(580 -2.06807e-12 0)
(580 -2.30353e-12 0)
(580 -2.64269e-12 0)
(580 -2.63055e-12 0)
(580 -2.80915e-12 0)
(580 -3.10481e-12 0)
(580 -3.23606e-12 0)
(580 -3.14875e-12 0)
(580 -3.22021e-12 0)
(580 -3.31118e-12 0)
(580 -3.69089e-12 0)
(580 -3.77494e-12 0)
(580 -3.85303e-12 0)
(580 -3.69524e-12 0)
(580 -2.94434e-12 0)
(580 -2.60902e-12 0)
(580 -2.5902e-12 0)
(580 -2.73665e-12 0)
(580 -2.76864e-12 0)
(580 -2.71762e-12 0)
(580 -2.87745e-12 0)
(580 -2.61389e-12 0)
(580 -2.36548e-12 0)
(580 6.94519e-13 0)
(580 6.02598e-13 0)
(580 3.03662e-13 0)
(580 2.69728e-13 0)
(580 6.07984e-14 0)
(580 -1.30224e-13 0)
(580 -3.60418e-13 0)
(580 -3.8981e-13 0)
(580 -6.99069e-13 0)
(580 -8.51128e-13 0)
(580 -8.50555e-13 0)
(580 -1.05854e-12 0)
(580 -1.24771e-12 0)
(580 -1.62614e-12 0)
(580 -1.98924e-12 0)
(580 -2.20793e-12 0)
(580 -2.23511e-12 0)
(580 -2.1551e-12 0)
(580 -2.45224e-12 0)
(580 -2.49769e-12 0)
(580 -2.44406e-12 0)
(580 -2.43547e-12 0)
(580 -2.43288e-12 0)
(580 -2.20947e-12 0)
(580 -2.12858e-12 0)
(580 -2.02825e-12 0)
(580 -1.78444e-12 0)
(580 -1.79121e-12 0)
(580 -2.03503e-12 0)
(580 -2.14176e-12 0)
(580 -2.21801e-12 0)
(580 -2.01067e-12 0)
(580 -1.95613e-12 0)
(580 -2.01842e-12 0)
(580 -2.19193e-12 0)
(580 -2.32158e-12 0)
(580 -2.65803e-12 0)
(580 -2.77453e-12 0)
(580 -2.87344e-12 0)
(580 -3.10125e-12 0)
(580 -3.51134e-12 0)
(580 -3.71429e-12 0)
(580 -3.73314e-12 0)
(580 -3.40417e-12 0)
(580 -3.34757e-12 0)
(580 -3.25511e-12 0)
(580 -3.04844e-12 0)
(580 -2.96184e-12 0)
(580 -3.06876e-12 0)
(580 -3.23869e-12 0)
(580 -3.14215e-12 0)
(580 -3.27843e-12 0)
(580 -3.52741e-12 0)
(580 -3.82986e-12 0)
(580 -4.13611e-12 0)
(580 -4.39159e-12 0)
(580 -4.64516e-12 0)
(580 -4.81975e-12 0)
(580 -5.09464e-12 0)
(580 -4.868e-12 0)
(580 -4.86443e-12 0)
(580 -4.84139e-12 0)
(580 -4.08911e-12 0)
(580 -4.01367e-12 0)
(580 -3.74417e-12 0)
(580 -3.67e-12 0)
(580 -3.48557e-12 0)
(580 -3.31273e-12 0)
(580 -3.24636e-12 0)
(580 -3.17373e-12 0)
(580 -1.90392e-12 0)
(580 -2.27893e-12 0)
(580 -2.3037e-12 0)
(580 -2.47486e-12 0)
(580 -2.54256e-12 0)
(580 -2.51676e-12 0)
(580 -2.55587e-12 0)
(580 -2.67463e-12 0)
(580 -2.41354e-12 0)
(580 -2.33505e-12 0)
(580 -2.48747e-12 0)
(580 -2.49368e-12 0)
(580 -2.45441e-12 0)
(580 -2.19752e-12 0)
(580 -2.00379e-12 0)
(580 -1.91719e-12 0)
(580 -1.89038e-12 0)
(580 -1.6744e-12 0)
(580 -1.95273e-12 0)
(580 -2.32623e-12 0)
(580 -2.43631e-12 0)
(580 -2.52137e-12 0)
(580 -2.68344e-12 0)
(580 -2.94854e-12 0)
(580 -3.29814e-12 0)
(580 -3.41546e-12 0)
(580 -3.45213e-12 0)
(580 -3.29211e-12 0)
(580 -2.82675e-12 0)
(580 -2.486e-12 0)
(580 -1.82791e-12 0)
(580 -1.58289e-12 0)
(580 -1.63226e-12 0)
(580 -1.79768e-12 0)
(580 -1.96315e-12 0)
(580 -2.28178e-12 0)
(580 -2.67291e-12 0)
(580 -2.88172e-12 0)
(580 -3.01307e-12 0)
(580 -3.24977e-12 0)
(580 -3.38233e-12 0)
(580 -3.38075e-12 0)
(580 -3.55142e-12 0)
(580 -3.53856e-12 0)
(580 -3.6001e-12 0)
(580 -3.7465e-12 0)
(580 -4.06784e-12 0)
(580 -4.25876e-12 0)
(580 -4.43428e-12 0)
(580 -4.45667e-12 0)
(580 -4.49996e-12 0)
(580 -4.65248e-12 0)
(580 -4.60533e-12 0)
(580 -4.74933e-12 0)
(580 -5.09161e-12 0)
(580 -5.06152e-12 0)
(580 -5.05204e-12 0)
(580 -5.00702e-12 0)
(580 -5.16144e-12 0)
(580 -5.7289e-12 0)
(580 -5.9818e-12 0)
(580 -5.93592e-12 0)
(580 -5.50455e-12 0)
(580 -5.49221e-12 0)
(580 -4.67066e-12 0)
(580 -3.57009e-12 0)
(580 -2.9084e-12 0)
(580 -2.58076e-12 0)
(580 -2.41215e-12 0)
(580 -2.23494e-12 0)
(580 -3.51929e-12 0)
(580 -3.69329e-12 0)
(580 -3.64766e-12 0)
(580 -3.82473e-12 0)
(580 -3.82186e-12 0)
(580 -3.77275e-12 0)
(580 -3.85036e-12 0)
(580 -4.05608e-12 0)
(580 -4.29611e-12 0)
(580 -4.49938e-12 0)
(580 -4.55425e-12 0)
(580 -4.41739e-12 0)
(580 -4.39878e-12 0)
(580 -4.33159e-12 0)
(580 -4.08391e-12 0)
(580 -4.05798e-12 0)
(580 -4.07581e-12 0)
(580 -4.15558e-12 0)
(580 -4.08207e-12 0)
(580 -4.0384e-12 0)
(580 -4.17048e-12 0)
(580 -4.28087e-12 0)
(580 -4.2175e-12 0)
(580 -4.31303e-12 0)
(580 -4.4025e-12 0)
(580 -4.35866e-12 0)
(580 -4.26993e-12 0)
(580 -4.19595e-12 0)
(580 -4.15506e-12 0)
(580 -4.11603e-12 0)
(580 -3.96291e-12 0)
(580 -3.83667e-12 0)
(580 -3.69541e-12 0)
(580 -3.71428e-12 0)
(580 -3.62126e-12 0)
(580 -3.68434e-12 0)
(580 -3.52836e-12 0)
(580 -3.59236e-12 0)
(580 -3.6854e-12 0)
(580 -3.87365e-12 0)
(580 -3.93765e-12 0)
(580 -3.99388e-12 0)
(580 -4.11016e-12 0)
(580 -4.36839e-12 0)
(580 -4.48244e-12 0)
(580 -4.54591e-12 0)
(580 -4.74032e-12 0)
(580 -5.14234e-12 0)
(580 -5.29808e-12 0)
(580 -5.29029e-12 0)
(580 -5.53812e-12 0)
(580 -5.81799e-12 0)
(580 -5.87224e-12 0)
(580 -5.66571e-12 0)
(580 -5.34255e-12 0)
(580 -5.20247e-12 0)
(580 -4.83899e-12 0)
(580 -4.9393e-12 0)
(580 -5.07883e-12 0)
(580 -5.21085e-12 0)
(580 -5.54696e-12 0)
(580 -5.66079e-12 0)
(580 -5.79418e-12 0)
(580 -5.75261e-12 0)
(580 -5.52819e-12 0)
(580 -4.81186e-12 0)
(580 -4.21345e-12 0)
(580 -3.41824e-12 0)
(580 -2.94232e-12 0)
(580 -2.38672e-12 0)
(580 -4.70471e-12 0)
(580 -4.38411e-12 0)
(580 -4.13682e-12 0)
(580 -3.87751e-12 0)
(580 -3.82675e-12 0)
(580 -3.99892e-12 0)
(580 -4.07167e-12 0)
(580 -3.93921e-12 0)
(580 -3.98166e-12 0)
(580 -3.96482e-12 0)
(580 -3.91842e-12 0)
(580 -3.9344e-12 0)
(580 -3.93715e-12 0)
(580 -3.92218e-12 0)
(580 -4.13637e-12 0)
(580 -3.84765e-12 0)
(580 -3.67443e-12 0)
(580 -3.51616e-12 0)
(580 -3.36143e-12 0)
(580 -3.48855e-12 0)
(580 -3.34826e-12 0)
(580 -3.34364e-12 0)
(580 -3.45245e-12 0)
(580 -3.64098e-12 0)
(580 -3.60408e-12 0)
(580 -3.69129e-12 0)
(580 -3.50406e-12 0)
(580 -3.42378e-12 0)
(580 -3.3924e-12 0)
(580 -3.44823e-12 0)
(580 -3.61729e-12 0)
(580 -3.62157e-12 0)
(580 -3.69934e-12 0)
(580 -3.81115e-12 0)
(580 -4.0521e-12 0)
(580 -4.1613e-12 0)
(580 -4.06095e-12 0)
(580 -4.10619e-12 0)
(580 -3.9931e-12 0)
(580 -4.05846e-12 0)
(580 -4.1568e-12 0)
(580 -4.4716e-12 0)
(580 -4.78612e-12 0)
(580 -5.19492e-12 0)
(580 -5.40352e-12 0)
(580 -5.32202e-12 0)
(580 -5.23267e-12 0)
(580 -5.21189e-12 0)
(580 -5.24043e-12 0)
(580 -5.56737e-12 0)
(580 -5.64005e-12 0)
(580 -5.82907e-12 0)
(580 -5.97166e-12 0)
(580 -5.6524e-12 0)
(580 -5.2415e-12 0)
(580 -5.16851e-12 0)
(580 -5.26892e-12 0)
(580 -5.16305e-12 0)
(580 -5.09089e-12 0)
(580 -5.23005e-12 0)
(580 -5.35503e-12 0)
(580 -5.38284e-12 0)
(580 -5.40437e-12 0)
(580 -5.35493e-12 0)
(580 -5.09779e-12 0)
(580 -4.94675e-12 0)
(580 -4.8755e-12 0)
(580 -4.7176e-12 0)
(580 -4.39801e-12 0)
(580 -3.81321e-12 0)
(580 -4.14842e-12 0)
(580 -4.05967e-12 0)
(580 -4.2055e-12 0)
(580 -4.31823e-12 0)
(580 -4.4714e-12 0)
(580 -4.4968e-12 0)
(580 -4.48946e-12 0)
(580 -4.53656e-12 0)
(580 -4.26251e-12 0)
(580 -3.897e-12 0)
(580 -3.81986e-12 0)
(580 -3.73487e-12 0)
(580 -3.70174e-12 0)
(580 -3.68992e-12 0)
(580 -3.54527e-12 0)
(580 -3.55425e-12 0)
(580 -3.72927e-12 0)
(580 -3.76809e-12 0)
(580 -3.57167e-12 0)
(580 -3.40542e-12 0)
(580 -3.43564e-12 0)
(580 -3.35686e-12 0)
(580 -3.29539e-12 0)
(580 -3.25048e-12 0)
(580 -3.20709e-12 0)
(580 -3.37814e-12 0)
(580 -3.36939e-12 0)
(580 -3.46021e-12 0)
(580 -3.45463e-12 0)
(580 -3.36246e-12 0)
(580 -3.38328e-12 0)
(580 -3.54821e-12 0)
(580 -3.648e-12 0)
(580 -3.84925e-12 0)
(580 -3.83134e-12 0)
(580 -3.77992e-12 0)
(580 -4.0065e-12 0)
(580 -4.19005e-12 0)
(580 -4.44982e-12 0)
(580 -4.59895e-12 0)
(580 -4.58102e-12 0)
(580 -4.85221e-12 0)
(580 -5.26314e-12 0)
(580 -5.29106e-12 0)
(580 -5.2401e-12 0)
(580 -5.68988e-12 0)
(580 -5.80787e-12 0)
(580 -5.76771e-12 0)
(580 -5.70195e-12 0)
(580 -5.86296e-12 0)
(580 -5.74613e-12 0)
(580 -5.46219e-12 0)
(580 -5.31357e-12 0)
(580 -5.30134e-12 0)
(580 -5.44648e-12 0)
(580 -5.61886e-12 0)
(580 -5.81349e-12 0)
(580 -5.84372e-12 0)
(580 -5.96173e-12 0)
(580 -6.0161e-12 0)
(580 -5.94356e-12 0)
(580 -5.75372e-12 0)
(580 -5.71319e-12 0)
(580 -5.53582e-12 0)
(580 -5.3758e-12 0)
(580 -5.40855e-12 0)
(580 -5.42817e-12 0)
(580 -5.40251e-12 0)
(580 -5.32081e-12 0)
(580 -5.5596e-12 0)
(580 -2.62674e-12 0)
(580 -2.61678e-12 0)
(580 -2.79065e-12 0)
(580 -2.76971e-12 0)
(580 -2.6774e-12 0)
(580 -2.36924e-12 0)
(580 -2.40546e-12 0)
(580 -2.41756e-12 0)
(580 -2.45325e-12 0)
(580 -2.55819e-12 0)
(580 -2.65101e-12 0)
(580 -2.66217e-12 0)
(580 -2.61392e-12 0)
(580 -2.59437e-12 0)
(580 -2.53124e-12 0)
(580 -2.51822e-12 0)
(580 -2.58472e-12 0)
(580 -2.60626e-12 0)
(580 -2.54924e-12 0)
(580 -2.38476e-12 0)
(580 -2.35694e-12 0)
(580 -2.62055e-12 0)
(580 -2.59503e-12 0)
(580 -2.52196e-12 0)
(580 -2.53998e-12 0)
(580 -2.59177e-12 0)
(580 -2.75944e-12 0)
(580 -2.89938e-12 0)
(580 -2.93896e-12 0)
(580 -3.11854e-12 0)
(580 -3.16438e-12 0)
(580 -3.24894e-12 0)
(580 -3.47939e-12 0)
(580 -3.53278e-12 0)
(580 -3.60032e-12 0)
(580 -3.68813e-12 0)
(580 -3.94279e-12 0)
(580 -3.92858e-12 0)
(580 -3.81704e-12 0)
(580 -3.72468e-12 0)
(580 -3.51772e-12 0)
(580 -3.48417e-12 0)
(580 -3.41338e-12 0)
(580 -3.41901e-12 0)
(580 -3.48938e-12 0)
(580 -3.50664e-12 0)
(580 -3.44711e-12 0)
(580 -3.46956e-12 0)
(580 -3.33708e-12 0)
(580 -3.16664e-12 0)
(580 -3.18236e-12 0)
(580 -3.18103e-12 0)
(580 -3.36892e-12 0)
(580 -3.47938e-12 0)
(580 -3.59482e-12 0)
(580 -3.55476e-12 0)
(580 -3.46995e-12 0)
(580 -3.58197e-12 0)
(580 -3.51706e-12 0)
(580 -3.39985e-12 0)
(580 -3.65414e-12 0)
(580 -3.6353e-12 0)
(580 -3.60867e-12 0)
(580 -3.89699e-12 0)
(580 -4.13701e-12 0)
(580 -4.33836e-12 0)
(580 -4.93994e-12 0)
(580 -5.13486e-12 0)
(580 -5.34362e-12 0)
(580 -5.63124e-12 0)
(580 -4.00392e-12 0)
(580 -4.21276e-12 0)
(580 -4.25903e-12 0)
(580 -4.26496e-12 0)
(580 -4.43993e-12 0)
(580 -4.48162e-12 0)
(580 -4.33222e-12 0)
(580 -4.20246e-12 0)
(580 -4.05463e-12 0)
(580 -4.00173e-12 0)
(580 -3.91787e-12 0)
(580 -3.97389e-12 0)
(580 -3.8855e-12 0)
(580 -3.72411e-12 0)
(580 -3.5004e-12 0)
(580 -3.11317e-12 0)
(580 -2.63415e-12 0)
(580 -2.52465e-12 0)
(580 -2.62913e-12 0)
(580 -2.63544e-12 0)
(580 -2.54609e-12 0)
(580 -2.42165e-12 0)
(580 -2.31824e-12 0)
(580 -2.32811e-12 0)
(580 -2.38556e-12 0)
(580 -2.35283e-12 0)
(580 -2.62246e-12 0)
(580 -2.88199e-12 0)
(580 -3.40458e-12 0)
(580 -3.78009e-12 0)
(580 -4.04383e-12 0)
(580 -4.13793e-12 0)
(580 -4.10016e-12 0)
(580 -4.02107e-12 0)
(580 -3.96714e-12 0)
(580 -3.94075e-12 0)
(580 -3.71837e-12 0)
(580 -3.44639e-12 0)
(580 -2.99307e-12 0)
(580 -2.49193e-12 0)
(580 -2.40091e-12 0)
(580 -2.01747e-12 0)
(580 -1.7752e-12 0)
(580 -1.83517e-12 0)
(580 -1.83265e-12 0)
(580 -1.62245e-12 0)
(580 -1.64997e-12 0)
(580 -1.64668e-12 0)
(580 -1.89531e-12 0)
(580 -1.91209e-12 0)
(580 -1.88758e-12 0)
(580 -1.68728e-12 0)
(580 -1.46791e-12 0)
(580 -1.2993e-12 0)
(580 -1.21597e-12 0)
(580 -1.19705e-12 0)
(580 -1.1004e-12 0)
(580 -1.14275e-12 0)
(580 -1.1604e-12 0)
(580 -1.05864e-12 0)
(580 -8.72259e-13 0)
(580 -9.76104e-13 0)
(580 -1.07793e-12 0)
(580 -1.44839e-12 0)
(580 -2.01928e-12 0)
(580 -2.22939e-12 0)
(580 -2.34322e-12 0)
(580 -2.41343e-12 0)
(580 -2.84903e-12 0)
(580 -2.84818e-12 0)
(580 -4.32249e-12 0)
(580 -4.31258e-12 0)
(580 -4.29076e-12 0)
(580 -4.17118e-12 0)
(580 -4.06621e-12 0)
(580 -4.15607e-12 0)
(580 -4.06763e-12 0)
(580 -3.8981e-12 0)
(580 -3.74391e-12 0)
(580 -3.46965e-12 0)
(580 -3.33965e-12 0)
(580 -3.18394e-12 0)
(580 -3.07615e-12 0)
(580 -3.12978e-12 0)
(580 -3.18057e-12 0)
(580 -3.22453e-12 0)
(580 -3.34435e-12 0)
(580 -3.37191e-12 0)
(580 -3.41539e-12 0)
(580 -3.5166e-12 0)
(580 -3.17338e-12 0)
(580 -3.26539e-12 0)
(580 -3.28956e-12 0)
(580 -3.53029e-12 0)
(580 -3.61929e-12 0)
(580 -3.79106e-12 0)
(580 -4.0028e-12 0)
(580 -4.1544e-12 0)
(580 -4.53666e-12 0)
(580 -4.65894e-12 0)
(580 -4.68186e-12 0)
(580 -4.4576e-12 0)
(580 -4.41218e-12 0)
(580 -4.20652e-12 0)
(580 -4.09353e-12 0)
(580 -3.87294e-12 0)
(580 -3.73397e-12 0)
(580 -3.41732e-12 0)
(580 -3.28079e-12 0)
(580 -3.34741e-12 0)
(580 -3.21707e-12 0)
(580 -3.12872e-12 0)
(580 -3.19518e-12 0)
(580 -2.6788e-12 0)
(580 -2.4915e-12 0)
(580 -2.14451e-12 0)
(580 -2.11764e-12 0)
(580 -1.90413e-12 0)
(580 -1.73211e-12 0)
(580 -1.57295e-12 0)
(580 -1.56687e-12 0)
(580 -1.55852e-12 0)
(580 -1.44717e-12 0)
(580 -1.49552e-12 0)
(580 -1.46028e-12 0)
(580 -1.55e-12 0)
(580 -1.46937e-12 0)
(580 -1.27566e-12 0)
(580 -1.16343e-12 0)
(580 -9.77466e-13 0)
(580 -9.56386e-13 0)
(580 -8.97325e-13 0)
(580 -8.39264e-13 0)
(580 -7.30136e-13 0)
(580 -8.09052e-13 0)
(580 -9.51365e-13 0)
(580 -1.10626e-12 0)
(580 -1.26618e-12 0)
(580 -1.63465e-12 0)
(580 -1.75391e-12 0)
(580 -3.86731e-12 0)
(580 -3.7107e-12 0)
(580 -3.74251e-12 0)
(580 -3.77507e-12 0)
(580 -3.62235e-12 0)
(580 -3.56969e-12 0)
(580 -3.77022e-12 0)
(580 -4.13528e-12 0)
(580 -4.297e-12 0)
(580 -4.41447e-12 0)
(580 -4.48821e-12 0)
(580 -4.23811e-12 0)
(580 -4.12331e-12 0)
(580 -4.01466e-12 0)
(580 -4.0161e-12 0)
(580 -4.05024e-12 0)
(580 -3.72894e-12 0)
(580 -3.40815e-12 0)
(580 -3.13854e-12 0)
(580 -2.90959e-12 0)
(580 -3.16727e-12 0)
(580 -3.39568e-12 0)
(580 -3.63513e-12 0)
(580 -3.93815e-12 0)
(580 -4.16531e-12 0)
(580 -4.44532e-12 0)
(580 -4.59111e-12 0)
(580 -4.70203e-12 0)
(580 -4.39715e-12 0)
(580 -4.2018e-12 0)
(580 -4.15208e-12 0)
(580 -4.19379e-12 0)
(580 -4.08595e-12 0)
(580 -3.99453e-12 0)
(580 -3.88371e-12 0)
(580 -3.83653e-12 0)
(580 -3.91413e-12 0)
(580 -3.9922e-12 0)
(580 -4.13708e-12 0)
(580 -4.22065e-12 0)
(580 -4.19071e-12 0)
(580 -4.04367e-12 0)
(580 -3.84814e-12 0)
(580 -3.42462e-12 0)
(580 -3.26281e-12 0)
(580 -3.12405e-12 0)
(580 -2.65275e-12 0)
(580 -2.44304e-12 0)
(580 -2.414e-12 0)
(580 -2.45077e-12 0)
(580 -2.43158e-12 0)
(580 -2.54201e-12 0)
(580 -2.49844e-12 0)
(580 -2.37441e-12 0)
(580 -2.23893e-12 0)
(580 -1.92538e-12 0)
(580 -1.89942e-12 0)
(580 -1.81911e-12 0)
(580 -1.68348e-12 0)
(580 -1.73182e-12 0)
(580 -1.75918e-12 0)
(580 -1.76921e-12 0)
(580 -1.84603e-12 0)
(580 -1.66349e-12 0)
(580 -1.37435e-12 0)
(580 -1.32078e-12 0)
(580 -1.29577e-12 0)
(580 -1.39244e-12 0)
(580 -1.44303e-12 0)
(580 -1.40181e-12 0)
(580 -3.41024e-12 0)
(580 -3.83698e-12 0)
(580 -4.07941e-12 0)
(580 -4.13618e-12 0)
(580 -4.06615e-12 0)
(580 -3.948e-12 0)
(580 -3.74074e-12 0)
(580 -3.5494e-12 0)
(580 -3.69289e-12 0)
(580 -3.61265e-12 0)
(580 -3.59489e-12 0)
(580 -3.60324e-12 0)
(580 -3.56312e-12 0)
(580 -3.54792e-12 0)
(580 -3.5853e-12 0)
(580 -3.47778e-12 0)
(580 -3.43034e-12 0)
(580 -3.323e-12 0)
(580 -3.418e-12 0)
(580 -3.60452e-12 0)
(580 -4.00682e-12 0)
(580 -4.30111e-12 0)
(580 -4.54396e-12 0)
(580 -4.68578e-12 0)
(580 -4.88058e-12 0)
(580 -5.07292e-12 0)
(580 -5.27118e-12 0)
(580 -5.62511e-12 0)
(580 -5.46344e-12 0)
(580 -5.2169e-12 0)
(580 -5.01856e-12 0)
(580 -4.89413e-12 0)
(580 -4.50249e-12 0)
(580 -4.24423e-12 0)
(580 -4.1942e-12 0)
(580 -4.24917e-12 0)
(580 -4.02784e-12 0)
(580 -3.83673e-12 0)
(580 -3.59284e-12 0)
(580 -3.47612e-12 0)
(580 -3.27454e-12 0)
(580 -3.32675e-12 0)
(580 -3.08206e-12 0)
(580 -2.97613e-12 0)
(580 -3.0604e-12 0)
(580 -2.94294e-12 0)
(580 -2.70278e-12 0)
(580 -2.49122e-12 0)
(580 -2.27227e-12 0)
(580 -2.23991e-12 0)
(580 -2.08318e-12 0)
(580 -1.84917e-12 0)
(580 -1.69215e-12 0)
(580 -1.48141e-12 0)
(580 -1.20308e-12 0)
(580 -1.32463e-12 0)
(580 -1.56945e-12 0)
(580 -1.80719e-12 0)
(580 -1.95578e-12 0)
(580 -2.25611e-12 0)
(580 -2.44422e-12 0)
(580 -2.36236e-12 0)
(580 -2.5707e-12 0)
(580 -3.11591e-12 0)
(580 -3.48173e-12 0)
(580 -3.46068e-12 0)
(580 -3.57594e-12 0)
(580 -3.44221e-12 0)
(580 -3.28237e-12 0)
(580 -3.29142e-12 0)
(580 -1.96754e-12 0)
(580 -1.90587e-12 0)
(580 -1.72001e-12 0)
(580 -1.43812e-12 0)
(580 -1.39154e-12 0)
(580 -1.65e-12 0)
(580 -1.82965e-12 0)
(580 -1.7701e-12 0)
(580 -1.71144e-12 0)
(580 -1.53818e-12 0)
(580 -1.452e-12 0)
(580 -1.36187e-12 0)
(580 -1.34114e-12 0)
(580 -1.38389e-12 0)
(580 -1.46209e-12 0)
(580 -1.67008e-12 0)
(580 -1.90308e-12 0)
(580 -2.22342e-12 0)
(580 -2.71105e-12 0)
(580 -2.95733e-12 0)
(580 -2.92051e-12 0)
(580 -3.0369e-12 0)
(580 -3.20908e-12 0)
(580 -3.48568e-12 0)
(580 -3.56878e-12 0)
(580 -3.50197e-12 0)
(580 -3.5693e-12 0)
(580 -3.41366e-12 0)
(580 -3.3869e-12 0)
(580 -3.32618e-12 0)
(580 -3.32325e-12 0)
(580 -3.3605e-12 0)
(580 -3.39794e-12 0)
(580 -3.40888e-12 0)
(580 -3.36037e-12 0)
(580 -3.3197e-12 0)
(580 -3.21585e-12 0)
(580 -3.42146e-12 0)
(580 -3.50683e-12 0)
(580 -3.75666e-12 0)
(580 -3.51289e-12 0)
(580 -3.36913e-12 0)
(580 -3.251e-12 0)
(580 -3.36885e-12 0)
(580 -3.11998e-12 0)
(580 -3.06617e-12 0)
(580 -3.07014e-12 0)
(580 -3.21489e-12 0)
(580 -3.12488e-12 0)
(580 -2.19758e-12 0)
(580 -2.10513e-12 0)
(580 -2.09591e-12 0)
(580 -2.09056e-12 0)
(580 -1.95959e-12 0)
(580 -1.66556e-12 0)
(580 -1.58946e-12 0)
(580 -1.9351e-12 0)
(580 -2.26197e-12 0)
(580 -2.56052e-12 0)
(580 -3.14135e-12 0)
(580 -3.42598e-12 0)
(580 -3.44998e-12 0)
(580 -3.48151e-12 0)
(580 -3.6687e-12 0)
(580 -3.77159e-12 0)
(580 -4.05614e-12 0)
(580 -4.02414e-12 0)
(580 -4.00041e-12 0)
(580 -3.97588e-12 0)
(580 -3.86434e-12 0)
(580 7.64637e-13 0)
(580 7.5926e-13 0)
(580 8.41866e-13 0)
(580 7.68866e-13 0)
(580 7.75492e-13 0)
(580 5.99641e-13 0)
(580 6.12964e-13 0)
(580 5.77459e-13 0)
(580 2.27749e-13 0)
(580 9.83388e-15 0)
(580 6.63906e-14 0)
(580 -5.10494e-14 0)
(580 -3.38497e-13 0)
(580 -6.03239e-13 0)
(580 -6.49219e-13 0)
(580 -8.38492e-13 0)
(580 -9.98241e-13 0)
(580 -1.26835e-12 0)
(580 -1.42373e-12 0)
(580 -1.68599e-12 0)
(580 -1.84756e-12 0)
(580 -2.0156e-12 0)
(580 -2.17704e-12 0)
(580 -2.27001e-12 0)
(580 -2.33865e-12 0)
(580 -2.16586e-12 0)
(580 -1.99027e-12 0)
(580 -1.99858e-12 0)
(580 -1.81882e-12 0)
(580 -1.93805e-12 0)
(580 -1.93974e-12 0)
(580 -1.82401e-12 0)
(580 -1.59861e-12 0)
(580 -1.51495e-12 0)
(580 -1.20754e-12 0)