/*--------------------------------*- C++ -*----------------------------------*\
| =========                 |                                                 |
| \\      /  F ield         | OpenFOAM: The Open Source CFD Toolbox           |
|  \\    /   O peration     | Version:  2306                                  |
|   \\  /    A nd           | Website:  www.openfoam.com                      |
|    \\/     M anipulation  |                                                 |
\*---------------------------------------------------------------------------*/
FoamFile
{
    version     2.0;
    format      ascii;
    arch        "LSB;label=32;scalar=64";
    class       volVectorField;
    location    "1e-05";
    object      U;
}
// * * * * * * * * * * * * * * * * * * * * * * * * * * * * * * * * * * * * * //

dimensions      [0 1 -1 0 0 0 0];

internalField   nonuniform List<vector> 
8941
(
(580 1.2356e-13 0)
(580 2.77293e-13 0)
(580 -4.63452e-14 0)
(580 -1.07878e-13 0)
(580 -2.84282e-13 0)
(580 -3.5148e-13 0)
(580 -3.60942e-13 0)
(580 -3.00094e-13 0)
(580 -4.51045e-13 0)
(580 -4.65481e-13 0)
(580 -2.63266e-13 0)
(580 -1.23061e-13 0)
(580 -8.04642e-16 0)
(580 1.81249e-13 0)
(580 3.70047e-13 0)
(580 1.66717e-13 0)
(580 -2.6676e-13 0)
(580 -3.21538e-13 0)
(580 -3.74241e-13 0)
(580 -1.95349e-13 0)
(580 -1.78424e-13 0)
(580 -1.4991e-13 0)
(580 -9.7382e-14 0)
(580 -1.5595e-13 0)
(580 5.5714e-14 0)
(580 4.7826e-13 0)
(580 6.45238e-13 0)
(580 5.40701e-13 0)
(580 3.56534e-13 0)
(580 7.1633e-14 0)
(580 7.04192e-14 0)
(580 1.20054e-13 0)
(580 1.65842e-13 0)
(580 3.75494e-13 0)
(580 1.19216e-13 0)
(580 1.46296e-13 0)
(580 4.10855e-14 0)
(580 -7.54411e-15 0)
(580 5.58282e-14 0)
(580 1.29328e-14 0)
(580 -3.17299e-13 0)
(580 1.14053e-14 0)
(580 -1.72494e-12 0)
(580 5.69631e-12 0)
(580 -2.20954e-11 0)
(580 7.51527e-11 0)
(579.999 -2.2331e-10 0)
(579.994 5.35199e-10 0)
(579.977 -7.04682e-10 0)
(579.907 -2.39136e-09 0)
(579.629 2.80444e-08 0)
(578.559 -1.44289e-07 0)
(574.735 4.8427e-07 0)
(563.692 -9.89141e-07 0)
(544.487 9.50004e-07 0)
(530.19 -2.45832e-07 0)
(526.844 -5.18713e-07 0)
(526.73 8.11294e-07 0)
(526.809 -9.67406e-07 0)
(526.999 1.18959e-06 0)
(527.103 -7.82135e-07 0)
(527.099 -2.9413e-06 0)
(527.046 6.01167e-06 0)
(526.899 -2.94318e-07 0)
(526.653 -1.30047e-05 0)
(526.365 1.89782e-05 0)
(526.109 -2.70563e-05 0)
(525.929 5.81452e-05 0)
(525.815 -9.25373e-05 0)
(525.739 0.000107346 0)
(525.679 -0.000105387 0)
(525.627 6.7943e-05 0)
(525.578 2.27151e-05 0)
(525.531 -9.2897e-05 0)
(525.492 -2.33068e-05 0)
(525.47 9.22229e-05 0)
(525.471 4.40783e-05 0)
(525.494 -4.79623e-05 0)
(525.544 -2.78302e-05 0)
(454.303 5.70942 0)
(580 1.7431e-13 0)
(580 2.18955e-13 0)
(580 -3.33943e-15 0)
(580 -2.01539e-14 0)
(580 -2.22426e-13 0)
(580 -3.07518e-13 0)
(580 -4.39247e-13 0)
(580 -1.03031e-13 0)
(580 -2.5043e-13 0)
(580 -7.23611e-13 0)
(580 -8.92813e-13 0)
(580 -5.51984e-13 0)
(580 -2.34205e-13 0)
(580 5.30596e-14 0)
(580 5.2512e-14 0)
(580 -1.83516e-13 0)
(580 -4.87589e-13 0)
(580 -3.52935e-13 0)
(580 -3.70088e-13 0)
(580 -5.41436e-13 0)
(580 -7.30447e-13 0)
(580 -4.90679e-13 0)
(580 -3.13209e-13 0)
(580 -2.33147e-13 0)
(580 7.85791e-14 0)
(580 5.41012e-13 0)
(580 7.47137e-13 0)
(580 7.48212e-13 0)
(580 4.0835e-13 0)
(580 1.89333e-13 0)
(580 1.73038e-13 0)
(580 2.7235e-13 0)
(580 4.74367e-13 0)
(580 7.45021e-13 0)
(580 4.56128e-13 0)
(580 4.61748e-13 0)
(580 2.91828e-13 0)
(580 2.31677e-14 0)
(580 -6.79314e-14 0)
(580 7.33853e-14 0)
(580 -3.39486e-13 0)
(580 5.64036e-13 0)
(580 -4.31434e-12 0)
(580 1.64402e-11 0)
(580 -6.26732e-11 0)
(580 2.18311e-10 0)
(579.999 -6.71505e-10 0)
(579.994 1.73297e-09 0)
(579.977 -3.14885e-09 0)
(579.907 2.42254e-10 0)
(579.629 2.93613e-08 0)
(578.559 -1.70053e-07 0)
(574.735 6.07681e-07 0)
(563.692 -1.27273e-06 0)
(544.487 1.23377e-06 0)
(530.19 -3.2146e-07 0)
(526.844 -6.58177e-07 0)
(526.73 1.0496e-06 0)
(526.809 -8.63469e-07 0)
(526.999 1.19224e-06 0)
(527.103 -7.91563e-07 0)
(527.099 -4.42691e-06 0)
(527.046 1.08305e-05 0)
(526.899 -2.14296e-06 0)
(526.653 -2.19724e-05 0)
(526.365 4.70117e-05 0)
(526.109 -9.02339e-05 0)
(525.929 0.000173243 0)
(525.815 -0.000247048 0)
(525.739 0.000271683 0)
(525.679 -0.000268122 0)
(525.627 0.000203567 0)
(525.578 -3.80758e-05 0)
(525.531 -3.42385e-05 0)
(525.492 -0.00023036 0)
(525.47 0.000333983 0)
(525.471 8.37174e-05 0)
(525.494 -0.000164099 0)
(525.544 -0.000100025 0)
(501.355 13.8533 0)
(580 -1.75171e-14 0)
(580 -9.40692e-14 0)
(580 -1.81848e-13 0)
(580 -2.47763e-13 0)
(580 -1.0875e-13 0)
(580 -2.60269e-13 0)
(580 -3.66028e-13 0)
(580 -3.85319e-13 0)
(580 -2.83176e-13 0)
(580 -6.34401e-13 0)
(580 -1.09774e-12 0)
(580 -1.08558e-12 0)
(580 -7.70987e-13 0)
(580 -4.08276e-13 0)
(580 -3.54783e-13 0)
(580 -3.06997e-13 0)
(580 -1.97726e-13 0)
(580 -5.04024e-13 0)
(580 -4.107e-13 0)
(580 -4.40484e-13 0)
(580 -4.18689e-13 0)
(580 -4.42101e-13 0)
(580 -2.72279e-13 0)
(580 -1.04237e-13 0)
(580 -3.28196e-14 0)
(580 6.5063e-14 0)
(580 4.84656e-14 0)
(580 5.38812e-14 0)
(580 2.14686e-15 0)
(580 1.86622e-13 0)
(580 4.28227e-13 0)
(580 6.06394e-13 0)
(580 6.33443e-13 0)
(580 7.15269e-13 0)
(580 4.57804e-13 0)
(580 2.453e-13 0)
(580 2.70854e-14 0)
(580 -5.65055e-14 0)
(580 -1.6051e-13 0)
(580 1.85105e-13 0)
(580 -2.5399e-13 0)
(580 1.35046e-12 0)
(580 -6.53389e-12 0)
(580 2.65293e-11 0)
(580 -1.01344e-10 0)
(580 3.56861e-10 0)
(579.999 -1.11595e-09 0)
(579.994 2.97478e-09 0)
(579.977 -5.93995e-09 0)
(579.907 3.88397e-09 0)
(579.629 3.72079e-08 0)
(578.559 -2.41074e-07 0)
(574.735 8.79264e-07 0)
(563.692 -1.87178e-06 0)
(544.487 1.79061e-06 0)
(530.19 -4.38077e-07 0)
(526.844 -9.30308e-07 0)
(526.73 1.53664e-06 0)
(526.809 -1.40457e-06 0)
(526.999 1.88114e-06 0)
(527.103 -1.55246e-06 0)
(527.099 -6.96552e-06 0)
(527.046 1.5394e-05 0)
(526.899 -1.8584e-06 0)
(526.653 -3.53385e-05 0)
(526.365 8.10388e-05 0)
(526.109 -0.000157703 0)
(525.929 0.000281892 0)
(525.815 -0.000384093 0)
(525.739 0.000419237 0)
(525.679 -0.000424039 0)
(525.627 0.000356044 0)
(525.578 -0.000155065 0)
(525.531 7.75995e-05 0)
(525.492 -0.000486117 0)
(525.47 0.000613889 0)
(525.471 -1.82537e-05 0)
(525.494 -0.000174761 0)
(525.544 -0.000153923 0)
(521.888 4.3069 0)
(580 -1.4491e-13 0)
(580 -2.85447e-13 0)
(580 -4.18949e-13 0)
(580 -4.73795e-13 0)
(580 -3.40496e-13 0)
(580 -3.56287e-13 0)
(580 -2.32832e-13 0)
(580 -5.71562e-13 0)
(580 -6.8367e-13 0)
(580 -5.20359e-13 0)
(580 -4.59567e-13 0)
(580 -4.63777e-13 0)
(580 -9.05851e-13 0)
(580 -7.72493e-13 0)
(580 -5.91863e-13 0)
(580 -4.92689e-13 0)
(580 -2.34947e-14 0)
(580 -2.77903e-13 0)
(580 -6.62234e-13 0)
(580 -4.792e-13 0)
(580 -2.47391e-13 0)
(580 -2.87059e-13 0)
(580 -1.72499e-13 0)
(580 -1.72181e-13 0)
(580 -1.24425e-13 0)
(580 -1.34051e-13 0)
(580 -2.34983e-13 0)
(580 -2.68696e-13 0)
(580 -3.89201e-13 0)
(580 -2.62736e-13 0)
(580 1.52927e-13 0)
(580 3.72257e-13 0)
(580 4.81764e-13 0)
(580 6.70751e-13 0)
(580 1.58211e-13 0)
(580 1.04301e-14 0)
(580 -1.87373e-14 0)
(580 1.29563e-13 0)
(580 2.06559e-13 0)
(580 2.42386e-13 0)
(580 -2.63754e-13 0)
(580 2.03539e-12 0)
(580 -8.24651e-12 0)
(580 3.53219e-11 0)
(580 -1.36123e-10 0)
(580 4.841e-10 0)
(579.999 -1.54015e-09 0)
(579.994 4.22833e-09 0)
(579.977 -9.05244e-09 0)
(579.907 9.37737e-09 0)
(579.629 3.64703e-08 0)
(578.559 -2.83426e-07 0)
(574.735 1.07517e-06 0)
(563.692 -2.31927e-06 0)
(544.487 2.25496e-06 0)
(530.19 -6.08071e-07 0)
(526.844 -1.14705e-06 0)
(526.73 1.91032e-06 0)
(526.809 -1.88138e-06 0)
(526.999 2.46266e-06 0)
(527.103 -1.85612e-06 0)
(527.099 -8.39421e-06 0)
(527.046 1.80342e-05 0)
(526.899 -1.29364e-07 0)
(526.653 -5.14539e-05 0)
(526.365 0.000120563 0)
(526.109 -0.000226714 0)
(525.929 0.000372509 0)
(525.815 -0.000479564 0)
(525.739 0.000523373 0)
(525.679 -0.00055145 0)
(525.627 0.00051031 0)
(525.578 -0.000322204 0)
(525.531 0.000242938 0)
(525.492 -0.000727408 0)
(525.47 0.000886999 0)
(525.47 -0.000223519 0)
(525.494 -8.02681e-05 0)
(525.544 -0.000793415 0)
(524.808 1.239 0)
(580 -6.18816e-14 0)
(580 -1.374e-14 0)
(580 -6.05141e-14 0)
(580 -1.24624e-13 0)
(580 7.04801e-14 0)
(580 2.21316e-13 0)
(580 1.85245e-13 0)
(580 3.14236e-13 0)
(580 2.91591e-13 0)
(580 3.46922e-13 0)
(580 3.72163e-13 0)
(580 1.68349e-13 0)
(580 -5.9339e-14 0)
(580 -3.04273e-13 0)
(580 -4.6298e-13 0)
(580 -3.7827e-13 0)
(580 -3.37987e-13 0)
(580 -3.36265e-13 0)
(580 -3.12104e-13 0)
(580 -3.62521e-13 0)
(580 -3.47267e-13 0)
(580 -5.01497e-13 0)
(580 -1.97818e-13 0)
(580 -8.76142e-14 0)
(580 -1.81311e-13 0)
(580 -1.26582e-13 0)
(580 -2.94213e-13 0)
(580 -7.679e-13 0)
(580 -7.80949e-13 0)
(580 -5.61101e-13 0)
(580 -2.74089e-13 0)
(580 -2.49537e-13 0)
(580 -9.62578e-14 0)
(580 -2.13259e-13 0)
(580 -7.39594e-14 0)
(580 9.46896e-14 0)
(580 3.31507e-13 0)
(580 2.93172e-13 0)
(580 2.7397e-13 0)
(580 3.57116e-13 0)
(580 1.62588e-13 0)
(580 2.86132e-12 0)
(580 -9.19618e-12 0)
(580 4.24548e-11 0)
(580 -1.65003e-10 0)
(580 5.93361e-10 0)
(579.999 -1.92464e-09 0)
(579.994 5.44824e-09 0)
(579.977 -1.24416e-08 0)
(579.907 1.70204e-08 0)
(579.629 2.56501e-08 0)
(578.559 -2.92321e-07 0)
(574.735 1.18437e-06 0)
(563.692 -2.60897e-06 0)
(544.487 2.58354e-06 0)
(530.19 -7.46943e-07 0)
(526.844 -1.29806e-06 0)
(526.73 2.168e-06 0)
(526.809 -2.19343e-06 0)
(526.999 2.82783e-06 0)
(527.103 -2.04876e-06 0)
(527.099 -9.15334e-06 0)
(527.046 1.83725e-05 0)
(526.899 3.58411e-06 0)
(526.653 -6.6658e-05 0)
(526.365 0.000156541 0)
(526.109 -0.000282811 0)
(525.929 0.000431494 0)
(525.815 -0.000526508 0)
(525.739 0.000575191 0)
(525.679 -0.000632799 0)
(525.627 0.000638328 0)
(525.578 -0.000495288 0)
(525.531 0.000435556 0)
(525.492 -0.000893851 0)
(525.47 0.00105412 0)
(525.471 -0.000474103 0)
(525.494 0.000202638 0)
(525.541 -0.00381912 0)
(525.426 0.248703 0)
(580 8.15597e-14 0)
(580 4.26103e-13 0)
(580 5.81084e-13 0)
(580 4.64018e-13 0)
(580 4.9534e-13 0)
(580 3.69299e-13 0)
(580 2.92055e-13 0)
(580 4.092e-13 0)
(580 5.16551e-13 0)
(580 6.61469e-13 0)
(580 6.15641e-13 0)
(580 3.8324e-13 0)
(580 1.12684e-13 0)
(580 -2.08829e-13 0)
(580 -2.03132e-13 0)
(580 -2.34874e-13 0)
(580 -4.22421e-13 0)
(580 -2.9511e-13 0)
(580 -9.58788e-14 0)
(580 -1.05673e-13 0)
(580 -4.34931e-13 0)
(580 -5.92378e-13 0)
(580 -1.92382e-13 0)
(580 -1.71293e-13 0)
(580 -4.12397e-13 0)
(580 -4.85204e-13 0)
(580 -4.07247e-13 0)
(580 -6.92405e-13 0)
(580 -8.08747e-13 0)
(580 -3.3972e-13 0)
(580 -1.71722e-13 0)
(580 -2.51118e-13 0)
(580 -5.74946e-13 0)
(580 -1.08452e-12 0)
(580 -1.41626e-13 0)
(580 -3.53323e-14 0)
(580 4.14651e-14 0)
(580 8.72286e-14 0)
(580 8.39119e-14 0)
(580 2.37617e-13 0)
(580 -2.9798e-13 0)
(580 2.78967e-12 0)
(580 -1.05685e-11 0)
(580 4.73028e-11 0)
(580 -1.85561e-10 0)
(580 6.78518e-10 0)
(579.999 -2.24662e-09 0)
(579.994 6.56114e-09 0)
(579.977 -1.59225e-08 0)
(579.907 2.65896e-08 0)
(579.629 4.2654e-09 0)
(578.559 -2.59874e-07 0)
(574.735 1.17033e-06 0)
(563.692 -2.6926e-06 0)
(544.487 2.74281e-06 0)
(530.19 -8.293e-07 0)
(526.844 -1.34998e-06 0)
(526.73 2.26213e-06 0)
(526.809 -2.31352e-06 0)
(526.999 2.92422e-06 0)
(527.103 -2.15027e-06 0)
(527.099 -9.34045e-06 0)
(527.046 1.74696e-05 0)
(526.899 8.73587e-06 0)
(526.653 -7.94827e-05 0)
(526.365 0.000182046 0)
(526.109 -0.000313777 0)
(525.929 0.000450295 0)
(525.815 -0.000526495 0)
(525.739 0.000574446 0)
(525.679 -0.000654482 0)
(525.627 0.000704545 0)
(525.578 -0.00061756 0)
(525.531 0.000566415 0)
(525.492 -0.000957025 0)
(525.47 0.0011113 0)
(525.471 -0.000685878 0)
(525.493 0.000510988 0)
(525.534 -0.00795395 0)
(525.537 0.027615 0)
(580 1.58714e-14 0)
(580 2.63133e-13 0)
(580 3.38651e-13 0)
(580 3.44633e-13 0)
(580 1.79338e-13 0)
(580 1.15552e-13 0)
(580 1.71076e-13 0)
(580 4.25766e-14 0)
(580 2.07312e-14 0)
(580 8.03429e-15 0)
(580 -1.82429e-13 0)
(580 -4.02157e-13 0)
(580 -6.46745e-13 0)
(580 -7.61426e-13 0)
(580 -8.34585e-13 0)
(580 -7.64239e-13 0)
(580 -3.56363e-13 0)
(580 -1.3754e-13 0)
(580 -2.05948e-13 0)
(580 -1.98561e-13 0)
(580 -1.53493e-13 0)
(580 -3.88855e-13 0)
(580 -4.40626e-13 0)
(580 -4.27184e-13 0)
(580 -6.4549e-13 0)
(580 -7.20711e-13 0)
(580 -6.43514e-13 0)
(580 -6.5418e-13 0)
(580 -4.38992e-13 0)
(580 -4.17367e-13 0)
(580 -1.11252e-13 0)
(580 -1.18698e-13 0)
(580 -4.47819e-13 0)
(580 -8.20361e-13 0)
(580 -3.69033e-13 0)
(580 -1.68771e-13 0)
(580 3.80756e-14 0)
(580 1.9207e-13 0)
(580 1.32745e-13 0)
(580 6.44567e-14 0)
(580 -5.5428e-13 0)
(580 2.60221e-12 0)
(580 -1.10531e-11 0)
(580 4.95598e-11 0)
(580 -1.97233e-10 0)
(580 7.33196e-10 0)
(579.999 -2.47967e-09 0)
(579.994 7.47486e-09 0)
(579.977 -1.92034e-08 0)
(579.907 3.71897e-08 0)
(579.629 -2.578e-08 0)
(578.559 -1.88755e-07 0)
(574.735 1.04046e-06 0)
(563.692 -2.52856e-06 0)
(544.487 2.63847e-06 0)
(530.19 -7.97975e-07 0)
(526.844 -1.32721e-06 0)
(526.73 2.19262e-06 0)
(526.809 -2.26144e-06 0)
(526.999 2.79995e-06 0)
(527.103 -2.15234e-06 0)
(527.099 -9.21792e-06 0)
(527.046 1.61466e-05 0)
(526.899 1.30483e-05 0)
(526.653 -8.88965e-05 0)
(526.365 0.000193926 0)
(526.109 -0.000314722 0)
(525.929 0.000425665 0)
(525.815 -0.000484578 0)
(525.739 0.000529692 0)
(525.679 -0.000617424 0)
(525.627 0.000697812 0)
(525.578 -0.000665842 0)
(525.531 0.000624978 0)
(525.492 -0.000902269 0)
(525.47 0.000973145 0)
(525.471 -0.000571187 0)
(525.493 0.00062178 0)
(525.518 -0.00831097 0)
(525.567 0.00516487 0)
(580 -3.79742e-14 0)
(580 -7.875e-14 0)
(580 -2.39955e-13 0)
(580 -1.00736e-13 0)
(580 -1.90081e-14 0)
(580 1.60841e-13 0)
(580 1.38333e-13 0)
(580 8.97731e-14 0)
(580 7.80682e-14 0)
(580 -2.21719e-13 0)
(580 -4.90908e-13 0)
(580 -5.85681e-13 0)
(580 -5.54463e-13 0)
(580 -5.00096e-13 0)
(580 -5.89666e-13 0)
(580 -4.05528e-13 0)
(580 -1.51701e-13 0)
(580 9.63925e-15 0)
(580 1.72048e-15 0)
(580 -3.22576e-14 0)
(580 -4.16268e-14 0)
(580 -3.10163e-13 0)
(580 -5.25478e-13 0)
(580 -4.26136e-13 0)
(580 -4.36081e-13 0)
(580 -5.57577e-13 0)
(580 -6.16262e-13 0)
(580 -2.05138e-13 0)
(580 1.61787e-14 0)
(580 -3.559e-13 0)
(580 -3.34677e-13 0)
(580 -3.39177e-13 0)
(580 -4.6521e-13 0)
(580 -5.56421e-13 0)
(580 -4.90141e-13 0)
(580 -3.82143e-13 0)
(580 -1.73314e-13 0)
(580 3.48294e-14 0)
(580 -2.38547e-14 0)
(580 9.44831e-15 0)
(580 -5.18744e-13 0)
(580 2.43928e-12 0)
(580 -1.11905e-11 0)
(580 4.92543e-11 0)
(580 -1.99925e-10 0)
(580 7.53192e-10 0)
(579.999 -2.60204e-09 0)
(579.994 8.09731e-09 0)
(579.977 -2.18963e-08 0)
(579.907 4.73844e-08 0)
(579.629 -6.00448e-08 0)
(578.559 -9.02744e-08 0)
(574.735 8.12248e-07 0)
(563.692 -2.14995e-06 0)
(544.487 2.26948e-06 0)
(530.19 -6.24064e-07 0)
(526.844 -1.24974e-06 0)
(526.73 2.03649e-06 0)
(526.809 -2.13038e-06 0)
(526.999 2.51502e-06 0)
(527.103 -1.96646e-06 0)
(527.099 -8.79685e-06 0)
(527.046 1.50083e-05 0)
(526.899 1.62343e-05 0)
(526.653 -9.40798e-05 0)
(526.365 0.000192464 0)
(526.109 -0.000286467 0)
(525.929 0.000361399 0)
(525.815 -0.000403006 0)
(525.739 0.000447625 0)
(525.68 -0.000531775 0)
(525.627 0.000623832 0)
(525.578 -0.00063177 0)
(525.531 0.000640522 0)
(525.492 -0.000875586 0)
(525.47 0.0008246 0)
(525.471 -0.000263183 0)
(525.494 0.000377183 0)
(525.516 -0.00274243 0)
(525.572 5.01802e-05 0)
(580 -3.24682e-14 0)
(580 -4.20281e-13 0)
(580 -5.23306e-13 0)
(580 -4.50469e-13 0)
(580 -4.04769e-13 0)
(580 -2.0516e-13 0)
(580 -1.41866e-13 0)
(580 -3.15256e-14 0)
(580 -8.57698e-14 0)
(580 -2.54561e-13 0)
(580 -2.57533e-13 0)
(580 -1.63067e-13 0)
(580 -1.10722e-14 0)
(580 -1.35731e-14 0)
(580 2.15454e-14 0)
(580 5.7574e-14 0)
(580 -1.92204e-13 0)
(580 -9.64509e-14 0)
(580 -8.5082e-14 0)
(580 -6.85824e-14 0)
(580 -8.92245e-14 0)
(580 1.20421e-13 0)
(580 -2.78359e-13 0)
(580 -8.91584e-13 0)
(580 -7.299e-13 0)
(580 -6.49815e-13 0)
(580 -6.76783e-13 0)
(580 -2.59194e-13 0)
(580 -2.30033e-13 0)
(580 -4.5201e-14 0)
(580 -3.94647e-13 0)
(580 -5.58689e-13 0)
(580 -5.71197e-13 0)
(580 -6.45721e-13 0)
(580 -4.48379e-13 0)
(580 -4.59745e-13 0)
(580 -4.0032e-13 0)
(580 -2.39968e-13 0)
(580 -9.3305e-14 0)
(580 1.81267e-13 0)
(580 -3.85903e-13 0)
(580 2.06731e-12 0)
(580 -1.0887e-11 0)
(580 4.69854e-11 0)
(580 -1.94262e-10 0)
(580 7.42321e-10 0)
(579.999 -2.61411e-09 0)
(579.994 8.35781e-09 0)
(579.977 -2.36359e-08 0)
(579.907 5.58416e-08 0)
(579.629 -9.31801e-08 0)
(578.559 2.07041e-08 0)
(574.735 5.1207e-07 0)
(563.692 -1.60132e-06 0)
(544.487 1.70519e-06 0)
(530.19 -3.50203e-07 0)
(526.844 -1.14928e-06 0)
(526.73 1.83339e-06 0)
(526.809 -2.05457e-06 0)
(526.999 2.42552e-06 0)
(527.103 -1.7782e-06 0)
(527.099 -8.19548e-06 0)
(527.046 1.37689e-05 0)
(526.899 1.76002e-05 0)
(526.653 -9.45313e-05 0)
(526.365 0.000180362 0)
(526.109 -0.000237672 0)
(525.929 0.000268458 0)
(525.815 -0.000291826 0)
(525.739 0.000336939 0)
(525.68 -0.000410612 0)
(525.627 0.00048787 0)
(525.578 -0.000502372 0)
(525.531 0.000530733 0)
(525.492 -0.000719306 0)
(525.47 0.000593864 0)
(525.471 3.48044e-06 0)
(525.494 0.000177997 0)
(525.515 -0.000150798 0)
(525.573 -0.00180287 0)
(580 -1.26775e-13 0)
(580 -2.90598e-13 0)
(580 -3.5838e-13 0)
(580 -4.02882e-13 0)
(580 -5.92504e-13 0)
(580 -5.25079e-13 0)
(580 -3.49867e-13 0)
(580 -1.21328e-13 0)
(580 -1.7158e-13 0)
(580 -1.25289e-13 0)
(580 2.66841e-14 0)
(580 5.41066e-14 0)
(580 1.65454e-13 0)
(580 2.4116e-13 0)
(580 2.44816e-13 0)
(580 -3.85971e-14 0)
(580 -2.14715e-13 0)
(580 -3.86781e-13 0)
(580 -4.5893e-13 0)
(580 -6.50479e-13 0)
(580 -5.81254e-13 0)
(580 -4.81447e-13 0)
(580 -4.9546e-13 0)
(580 -7.58925e-13 0)
(580 -8.77333e-13 0)
(580 -8.32076e-13 0)
(580 -4.58684e-13 0)
(580 -4.89732e-13 0)
(580 -3.1911e-13 0)
(580 -1.8083e-14 0)
(580 -1.83941e-13 0)
(580 -4.166e-13 0)
(580 -4.42521e-13 0)
(580 -4.42565e-13 0)
(580 -5.18599e-13 0)
(580 -5.86617e-13 0)
(580 -6.90055e-13 0)
(580 -5.23003e-13 0)
(580 -2.10612e-13 0)
(580 -6.26375e-14 0)
(580 -5.80536e-13 0)
(580 1.77025e-12 0)
(580 -9.79449e-12 0)
(580 4.28075e-11 0)
(580 -1.79964e-10 0)
(580 7.00046e-10 0)
(579.999 -2.51751e-09 0)
(579.994 8.2619e-09 0)
(579.977 -2.42429e-08 0)
(579.907 6.12151e-08 0)
(579.629 -1.20395e-07 0)
(578.559 1.24383e-07 0)
(574.735 2.01533e-07 0)
(563.692 -9.55336e-07 0)
(544.487 9.63392e-07 0)
(530.19 4.79146e-08 0)
(526.844 -1.07943e-06 0)
(526.73 1.61825e-06 0)
(526.809 -1.99267e-06 0)
(526.999 2.35746e-06 0)
(527.103 -1.63677e-06 0)
(527.099 -7.37633e-06 0)
(527.046 1.22629e-05 0)
(526.899 1.7563e-05 0)
(526.653 -9.02993e-05 0)
(526.365 0.000161115 0)
(526.109 -0.000179865 0)
(525.929 0.000163925 0)
(525.815 -0.000170038 0)
(525.739 0.000216013 0)
(525.68 -0.000275128 0)
(525.627 0.000325722 0)
(525.578 -0.000322998 0)
(525.531 0.00033254 0)
(525.492 -0.000476981 0)
(525.47 0.000354422 0)
(525.471 0.000272302 0)
(525.494 -0.000183475 0)
(525.515 -0.000594435 0)
(525.571 0.000365587 0)
(580 -3.15798e-14 0)
(580 1.44986e-15 0)
(580 1.99328e-13 0)
(580 2.24834e-13 0)
(580 -1.80797e-15 0)
(580 -1.56419e-13 0)
(580 -2.55033e-13 0)
(580 -1.69891e-13 0)
(580 1.0097e-13 0)
(580 3.10278e-13 0)
(580 3.13763e-13 0)
(580 2.46694e-13 0)
(580 1.15436e-13 0)
(580 1.43016e-13 0)
(580 2.83692e-13 0)
(580 1.69779e-13 0)
(580 8.28714e-14 0)
(580 -5.03357e-13 0)
(580 -6.59146e-13 0)
(580 -7.00143e-13 0)
(580 -6.35733e-13 0)
(580 -5.91103e-13 0)
(580 -3.47225e-13 0)
(580 -2.76309e-13 0)
(580 -2.47003e-13 0)
(580 -1.05248e-15 0)
(580 1.84682e-13 0)
(580 2.36187e-14 0)
(580 -7.05431e-14 0)
(580 -2.97156e-13 0)
(580 -3.26647e-13 0)
(580 -3.9008e-13 0)
(580 -3.28523e-13 0)
(580 -1.90143e-13 0)
(580 -4.49677e-13 0)
(580 -4.83425e-13 0)
(580 -4.77912e-13 0)
(580 -3.42692e-13 0)
(580 -1.97979e-13 0)
(580 -2.23307e-13 0)
(580 -6.48364e-13 0)
(580 1.45911e-12 0)
(580 -8.28094e-12 0)
(580 3.7069e-11 0)
(580 -1.58453e-10 0)
(580 6.28546e-10 0)
(579.999 -2.30951e-09 0)
(579.994 7.78946e-09 0)
(579.977 -2.3684e-08 0)
(579.907 6.29778e-08 0)
(579.629 -1.37909e-07 0)
(578.559 2.0875e-07 0)
(574.735 -7.72852e-08 0)
(563.692 -3.68097e-07 0)
(544.487 3.02001e-07 0)
(530.19 4.07013e-07 0)
(526.844 -1.02656e-06 0)
(526.73 1.4216e-06 0)
(526.809 -1.97913e-06 0)
(526.999 2.47967e-06 0)
(527.103 -1.44834e-06 0)
(527.099 -6.2593e-06 0)
(527.046 1.04524e-05 0)
(526.899 1.61635e-05 0)
(526.653 -8.1659e-05 0)
(526.365 0.000137816 0)
(526.109 -0.000127218 0)
(525.929 7.56883e-05 0)
(525.815 -6.43375e-05 0)
(525.739 0.000107637 0)
(525.679 -0.000158964 0)
(525.627 0.000189455 0)
(525.578 -0.000164251 0)
(525.531 0.000135401 0)
(525.492 -0.000221736 0)
(525.47 0.000175204 0)
(525.471 0.000254076 0)
(525.494 -0.000224839 0)
(525.515 -0.000469274 0)
(525.57 -0.000457216 0)
(580 1.47671e-13 0)
(580 2.60508e-13 0)
(580 5.00324e-13 0)
(580 4.12974e-13 0)
(580 5.18217e-13 0)
(580 3.93989e-13 0)
(580 3.63979e-13 0)
(580 1.43199e-13 0)
(580 1.01842e-13 0)
(580 2.37249e-13 0)
(580 1.98428e-13 0)
(580 2.83572e-13 0)
(580 1.64447e-13 0)
(580 -1.46419e-13 0)
(580 -1.72248e-13 0)
(580 -1.59804e-13 0)
(580 -1.89412e-13 0)
(580 -2.4727e-13 0)
(580 -5.10204e-13 0)
(580 -4.48272e-13 0)
(580 -5.32497e-13 0)
(580 -4.53496e-13 0)
(580 -3.98204e-13 0)
(580 -4.68534e-13 0)
(580 -2.35507e-13 0)
(580 -1.55539e-14 0)
(580 1.4834e-13 0)
(580 1.26135e-13 0)
(580 -9.73261e-14 0)
(580 -4.73212e-13 0)
(580 -5.57789e-13 0)
(580 -2.43847e-13 0)
(580 -1.49194e-13 0)
(580 -3.49189e-14 0)
(580 -4.44113e-13 0)
(580 -4.20748e-13 0)
(580 -2.55146e-13 0)
(580 -2.06718e-13 0)
(580 -3.27533e-13 0)
(580 -3.33947e-13 0)
(580 -5.79077e-13 0)
(580 1.17516e-12 0)
(580 -6.62187e-12 0)
(580 3.03982e-11 0)
(580 -1.32568e-10 0)
(580 5.35786e-10 0)
(579.999 -2.01375e-09 0)
(579.994 6.96775e-09 0)
(579.977 -2.19102e-08 0)
(579.907 6.10747e-08 0)
(579.629 -1.44115e-07 0)
(578.559 2.63815e-07 0)
(574.735 -2.98176e-07 0)
(563.692 1.41462e-07 0)
(544.487 -3.0087e-07 0)
(530.19 7.28539e-07 0)
(526.844 -9.53378e-07 0)
(526.73 1.23393e-06 0)
(526.809 -1.98451e-06 0)
(526.999 2.66739e-06 0)
(527.103 -1.29824e-06 0)
(527.099 -4.87342e-06 0)
(527.046 7.76424e-06 0)
(526.899 1.39607e-05 0)
(526.653 -6.84801e-05 0)
(526.365 0.000111367 0)
(526.109 -8.39097e-05 0)
(525.929 1.17517e-05 0)
(525.815 1.4246e-05 0)
(525.739 2.34354e-05 0)
(525.679 -7.05983e-05 0)
(525.627 9.46957e-05 0)
(525.578 -6.46946e-05 0)
(525.531 2.11083e-05 0)
(525.492 -7.07342e-05 0)
(525.47 6.29189e-05 0)
(525.471 0.00019505 0)
(525.494 -0.000188564 0)
(525.516 -0.000336327 0)
(525.57 -0.00117451 0)
(580 1.11649e-13 0)
(580 3.66995e-13 0)
(580 3.34044e-13 0)
(580 3.49846e-13 0)
(580 5.68872e-13 0)
(580 6.8578e-13 0)
(580 6.21962e-13 0)
(580 4.10333e-13 0)
(580 2.12808e-13 0)
(580 2.55165e-13 0)
(580 2.4176e-13 0)
(580 3.2396e-13 0)
(580 1.54211e-13 0)
(580 -4.98656e-14 0)
(580 -1.77639e-13 0)
(580 -2.3203e-13 0)
(580 -4.66366e-13 0)
(580 -3.64609e-13 0)
(580 -3.25178e-13 0)
(580 -3.82644e-13 0)
(580 -4.84934e-13 0)
(580 -3.00994e-13 0)
(580 -7.95921e-14 0)
(580 1.48598e-13 0)
(580 1.6171e-13 0)
(580 1.7886e-13 0)
(580 2.13771e-13 0)
(580 4.21151e-13 0)
(580 5.01625e-13 0)
(580 2.88033e-13 0)
(580 1.03947e-13 0)
(580 1.69125e-15 0)
(580 -2.08548e-13 0)
(580 -2.06845e-13 0)
(580 -3.39708e-13 0)
(580 -3.81241e-13 0)
(580 -4.38745e-13 0)
(580 -5.75807e-13 0)
(580 -7.52927e-13 0)
(580 -6.60134e-13 0)
(580 -6.79736e-13 0)
(580 5.66942e-13 0)
(580 -5.49257e-12 0)
(580 2.33606e-11 0)
(580 -1.04972e-10 0)
(580 4.31802e-10 0)
(579.999 -1.66044e-09 0)
(579.994 5.89948e-09 0)
(579.977 -1.91355e-08 0)
(579.907 5.55583e-08 0)
(579.629 -1.3955e-07 0)
(578.559 2.85115e-07 0)
(574.735 -4.36134e-07 0)
(563.692 5.02799e-07 0)
(544.487 -7.30627e-07 0)
(530.19 9.48397e-07 0)
(526.844 -8.81248e-07 0)
(526.73 1.05208e-06 0)
(526.809 -1.89921e-06 0)
(526.999 2.68938e-06 0)
(527.103 -1.13059e-06 0)
(527.099 -3.71433e-06 0)
(527.046 5.97456e-06 0)
(526.899 1.02815e-05 0)
(526.653 -5.22655e-05 0)
(526.365 8.2805e-05 0)
(526.109 -5.15179e-05 0)
(525.929 -2.29109e-05 0)
(525.815 5.77902e-05 0)
(525.739 -3.01449e-05 0)
(525.679 -1.44549e-05 0)
(525.627 4.39436e-05 0)
(525.578 -3.31695e-05 0)
(525.531 9.56719e-06 0)
(525.492 -3.37759e-05 0)
(525.47 2.63303e-05 0)
(525.471 0.000105513 0)
(525.494 -9.67452e-05 0)
(525.516 -0.00015567 0)
(525.571 -0.000657758 0)
(580 -1.06134e-13 0)
(580 -5.0042e-15 0)
(580 -1.0348e-13 0)
(580 2.68059e-14 0)
(580 -7.16563e-14 0)
(580 -3.348e-14 0)
(580 6.13949e-14 0)
(580 3.39631e-14 0)
(580 3.23635e-14 0)
(580 -2.36455e-14 0)
(580 1.17969e-13 0)
(580 -1.81257e-14 0)
(580 -2.85876e-15 0)
(580 -4.29915e-14 0)
(580 -2.3211e-13 0)
(580 -3.73314e-13 0)
(580 -3.15864e-13 0)
(580 -3.93964e-13 0)
(580 -1.79595e-13 0)
(580 -2.10603e-13 0)
(580 -3.25298e-13 0)
(580 -1.81401e-13 0)
(580 9.93431e-14 0)
(580 4.78361e-13 0)
(580 3.48057e-13 0)
(580 2.05193e-13 0)
(580 8.43792e-14 0)
(580 9.48136e-15 0)
(580 -1.20061e-13 0)
(580 -9.0583e-14 0)
(580 -1.0893e-13 0)
(580 -3.65064e-13 0)
(580 -4.31358e-13 0)
(580 -5.50243e-13 0)
(580 -4.64264e-13 0)
(580 -5.01675e-13 0)
(580 -6.84959e-13 0)
(580 -9.59484e-13 0)
(580 -1.08962e-12 0)
(580 -8.03386e-13 0)
(580 -6.50095e-13 0)
(580 1.87942e-13 0)
(580 -4.05655e-12 0)
(580 1.68864e-11 0)
(580 -7.87901e-11 0)
(580 3.29934e-10 0)
(579.999 -1.2949e-09 0)
(579.994 4.70505e-09 0)
(579.977 -1.5702e-08 0)
(579.907 4.7309e-08 0)
(579.629 -1.24891e-07 0)
(578.559 2.76288e-07 0)
(574.735 -4.85487e-07 0)
(563.692 6.96987e-07 0)
(544.487 -9.58866e-07 0)
(530.19 1.02687e-06 0)
(526.844 -7.87721e-07 0)
(526.73 8.6718e-07 0)
(526.809 -1.73832e-06 0)
(526.999 2.60257e-06 0)
(527.103 -9.59539e-07 0)
(527.099 -2.86831e-06 0)
(527.046 5.01756e-06 0)
(526.899 5.75636e-06 0)
(526.653 -3.57509e-05 0)
(526.365 5.74917e-05 0)
(526.109 -3.0815e-05 0)
(525.929 -3.35095e-05 0)
(525.815 6.91733e-05 0)
(525.739 -5.1919e-05 0)
(525.679 1.35169e-05 0)
(525.627 2.25222e-05 0)
(525.578 -3.6639e-05 0)
(525.531 2.45246e-05 0)
(525.492 -2.09162e-05 0)
(525.47 8.43082e-06 0)
(525.471 5.56968e-05 0)
(525.494 -4.01395e-05 0)
(525.516 -0.00010172 0)
(525.571 -9.44781e-06 0)
(580 9.06283e-14 0)
(580 2.42534e-14 0)
(580 4.32629e-14 0)
(580 -1.38506e-13 0)
(580 -2.06698e-13 0)
(580 -2.19101e-13 0)
(580 -1.09776e-13 0)
(580 -6.29717e-14 0)
(580 -6.67543e-14 0)
(580 -9.28963e-14 0)
(580 -4.79878e-14 0)
(580 1.30781e-13 0)
(580 3.04608e-13 0)
(580 6.31125e-13 0)
(580 5.73889e-13 0)
(580 5.76609e-14 0)
(580 2.38595e-13 0)
(580 2.00643e-13 0)
(580 3.17458e-13 0)
(580 3.34964e-13 0)
(580 2.32958e-13 0)
(580 4.89718e-14 0)
(580 -6.3211e-14 0)
(580 -7.43109e-14 0)
(580 -7.53435e-14 0)
(580 -2.96502e-13 0)
(580 -5.39752e-13 0)
(580 -7.78897e-13 0)
(580 -9.52385e-13 0)
(580 -5.53574e-13 0)
(580 -1.98791e-13 0)
(580 -3.36015e-13 0)
(580 -4.4301e-13 0)
(580 -8.04343e-13 0)
(580 -7.61181e-13 0)
(580 -8.17571e-13 0)
(580 -8.89704e-13 0)
(580 -1.01261e-12 0)
(580 -9.18749e-13 0)
(580 -6.12853e-13 0)
(580 -6.1343e-13 0)
(580 -8.45616e-14 0)
(580 -3.09327e-12 0)
(580 1.13279e-11 0)
(580 -5.53746e-11 0)
(580 2.37113e-10 0)
(579.999 -9.52504e-10 0)
(579.994 3.54482e-09 0)
(579.977 -1.2124e-08 0)
(579.907 3.75614e-08 0)
(579.629 -1.03206e-07 0)
(578.559 2.4246e-07 0)
(574.735 -4.64003e-07 0)
(563.692 7.2094e-07 0)
(544.487 -9.76929e-07 0)
(530.19 9.47211e-07 0)
(526.844 -6.53017e-07 0)
(526.73 6.74195e-07 0)
(526.809 -1.50147e-06 0)
(526.999 2.36094e-06 0)
(527.103 -7.7874e-07 0)
(527.099 -2.37153e-06 0)
(527.046 5.14382e-06 0)
(526.899 6.7433e-07 0)
(526.653 -2.14185e-05 0)
(526.365 3.76017e-05 0)
(526.109 -1.9509e-05 0)
(525.929 -2.88709e-05 0)
(525.815 6.14726e-05 0)
(525.739 -5.22269e-05 0)
(525.679 2.1458e-05 0)
(525.627 1.43348e-05 0)
(525.578 -4.06908e-05 0)
(525.531 3.52743e-05 0)
(525.492 -1.18691e-05 0)
(525.47 -6.141e-06 0)
(525.471 3.01031e-05 0)
(525.494 -1.97601e-05 0)
(525.516 -5.74468e-05 0)
(525.571 0.000229474 0)
(580 5.59986e-14 0)
(580 6.62688e-14 0)
(580 1.8207e-13 0)
(580 7.23845e-14 0)
(580 1.65269e-13 0)
(580 7.85439e-14 0)
(580 5.61523e-14 0)
(580 2.21864e-13 0)
(580 3.60462e-13 0)
(580 2.48235e-13 0)
(580 8.12642e-14 0)
(580 3.47529e-13 0)
(580 6.38904e-13 0)
(580 9.60305e-13 0)
(580 1.29168e-12 0)
(580 1.15886e-12 0)
(580 5.97692e-13 0)
(580 6.54484e-13 0)
(580 4.68547e-13 0)
(580 2.87592e-13 0)
(580 1.89425e-13 0)
(580 -6.94023e-14 0)
(580 -5.76581e-13 0)
(580 -6.58354e-13 0)
(580 -5.34012e-13 0)
(580 -4.21733e-13 0)
(580 -4.75172e-13 0)
(580 -9.53231e-13 0)
(580 -1.03791e-12 0)
(580 -7.35844e-13 0)
(580 -3.52412e-13 0)
(580 -3.41859e-13 0)
(580 -4.77723e-13 0)
(580 -6.65511e-13 0)
(580 -8.74266e-13 0)
(580 -8.39805e-13 0)
(580 -8.02877e-13 0)
(580 -6.36984e-13 0)
(580 -3.3373e-13 0)
(580 -3.35908e-13 0)
(580 -6.16952e-13 0)
(580 -3.42716e-13 0)
(580 -2.06984e-12 0)
(580 7.37583e-12 0)
(580 -3.56876e-11 0)
(580 1.5909e-10 0)
(579.999 -6.54461e-10 0)
(579.994 2.5004e-09 0)
(579.977 -8.78502e-09 0)
(579.907 2.79992e-08 0)
(579.629 -7.92631e-08 0)
(578.559 1.93717e-07 0)
(574.735 -3.93886e-07 0)
(563.692 6.403e-07 0)
(544.487 -8.38615e-07 0)
(530.19 7.55621e-07 0)
(526.844 -4.79646e-07 0)
(526.73 4.74602e-07 0)
(526.809 -1.17112e-06 0)
(526.999 1.90696e-06 0)
(527.103 -5.66698e-07 0)
(527.099 -2.06088e-06 0)
(527.046 5.93391e-06 0)
(526.899 -4.20837e-06 0)
(526.653 -1.05223e-05 0)
(526.365 2.4289e-05 0)
(526.109 -1.57492e-05 0)
(525.929 -1.60524e-05 0)
(525.815 4.17876e-05 0)
(525.739 -4.17384e-05 0)
(525.679 2.20624e-05 0)
(525.627 7.93151e-06 0)
(525.578 -3.54218e-05 0)
(525.531 3.25555e-05 0)
(525.492 -5.1121e-07 0)
(525.47 -1.3936e-05 0)
(525.471 1.33005e-05 0)
(525.494 -6.82675e-06 0)
(525.515 -3.23854e-05 0)
(525.571 0.00021916 0)
(580 -1.42132e-14 0)
(580 -1.2541e-14 0)
(580 -8.73141e-14 0)
(580 -1.37108e-13 0)
(580 -4.28504e-14 0)
(580 -5.85147e-14 0)
(580 -1.34729e-13 0)
(580 -9.5832e-14 0)
(580 9.53438e-14 0)
(580 1.62147e-13 0)
(580 7.22897e-14 0)
(580 2.17887e-13 0)
(580 4.20167e-13 0)
(580 4.78234e-13 0)
(580 5.24761e-13 0)
(580 5.70294e-13 0)
(580 3.99063e-13 0)
(580 1.53395e-13 0)
(580 -1.34427e-13 0)
(580 -3.82368e-13 0)
(580 -4.26843e-13 0)
(580 -6.57485e-13 0)
(580 -9.36978e-13 0)
(580 -1.19637e-12 0)
(580 -1.2117e-12 0)
(580 -9.8301e-13 0)
(580 -7.70067e-13 0)
(580 -7.936e-13 0)
(580 -6.17e-13 0)
(580 -9.68907e-13 0)
(580 -9.77933e-13 0)
(580 -8.65422e-13 0)
(580 -8.29263e-13 0)
(580 -6.812e-13 0)
(580 -8.84848e-13 0)
(580 -8.86473e-13 0)
(580 -8.91398e-13 0)
(580 -7.7842e-13 0)
(580 -5.67944e-13 0)
(580 -4.94749e-13 0)