/*--------------------------------*- C++ -*----------------------------------*\
| =========                 |                                                 |
| \\      /  F ield         | OpenFOAM: The Open Source CFD Toolbox           |
|  \\    /   O peration     | Version:  2306                                  |
|   \\  /    A nd           | Website:  www.openfoam.com                      |
|    \\/     M anipulation  |                                                 |
\*---------------------------------------------------------------------------*/
FoamFile
{
    version     2.0;
    format      ascii;
    arch        "LSB;label=32;scalar=64";
    class       volVectorField;
    location    "8e-05";
    object      U;
}
// * * * * * * * * * * * * * * * * * * * * * * * * * * * * * * * * * * * * * //

dimensions      [0 1 -1 0 0 0 0];

internalField   nonuniform List<vector> 
8983
(
(580 4.31551e-14 0)
(580 8.81105e-14 0)
(580 1.25803e-13 0)
(580 2.99048e-13 0)
(580 3.7662e-13 0)
(580 3.4232e-13 0)
(580 2.32823e-13 0)
(580 1.89853e-13 0)
(580 5.21263e-14 0)
(580 -7.93609e-14 0)
(580 -7.79372e-14 0)
(580 -9.77336e-14 0)
(580 -6.01813e-14 0)
(580 5.14272e-14 0)
(580 4.97756e-14 0)
(580 4.83224e-15 0)
(580 -8.82213e-14 0)
(580 -1.13436e-13 0)
(580 -2.13624e-13 0)
(580 -2.25442e-13 0)
(580 -2.37053e-13 0)
(580 -2.6966e-13 0)
(580 -3.69408e-13 0)
(580 -5.27205e-13 0)
(580 -6.91029e-13 0)
(580 -6.47392e-13 0)
(580 -4.68813e-13 0)
(580 -3.4471e-13 0)
(580 -2.44057e-13 0)
(580 -2.21272e-13 0)
(580 -1.06982e-13 0)
(580 -9.05815e-14 0)
(580 3.46469e-16 0)
(580 1.10167e-13 0)
(580 1.34171e-13 0)
(580 1.28586e-13 0)
(580 8.07488e-14 0)
(580 1.39527e-14 0)
(580 8.75957e-14 0)
(580 1.52624e-13 0)
(580 7.72377e-14 0)
(580 4.57652e-14 0)
(580 2.86902e-14 0)
(580 6.61991e-14 0)
(580 1.76746e-13 0)
(580 1.65861e-13 0)
(580 1.32436e-13 0)
(580 1.25543e-13 0)
(580 9.19472e-14 0)
(580 1.23669e-13 0)
(580 2.9456e-14 0)
(580 3.43891e-14 0)
(580 -5.07991e-14 0)
(580 -6.14322e-14 0)
(580 -5.93751e-14 0)
(580 -7.60561e-14 0)
(580 -1.1475e-13 0)
(580 -2.08023e-13 0)
(580 -3.39261e-13 0)
(580 -5.45386e-13 0)
(580 -4.86734e-13 0)
(580 -4.62703e-13 0)
(580 -3.94852e-13 0)
(580 -3.61087e-13 0)
(580 -2.48978e-13 0)
(580 -2.13168e-13 0)
(580 -2.45853e-13 0)
(580 -3.37427e-13 0)
(580 -3.17589e-13 0)
(580 -2.71805e-13 0)
(580 -2.16743e-13 0)
(580 -8.14779e-15 0)
(580 7.21221e-14 0)
(580 1.69153e-13 0)
(580 1.06443e-13 0)
(580 -2.70603e-14 0)
(580 1.2515e-14 0)
(580 3.93423e-15 0)
(580 3.85743e-14 0)
(580 4.57264e-14 0)
(580 1.57392e-14 0)
(580 -4.6425e-14 0)
(580 -1.18423e-13 0)
(580 -2.57033e-13 0)
(580 -3.45886e-13 0)
(580 -3.18256e-13 0)
(580 -5.96962e-13 0)
(580 -6.08819e-13 0)
(580 -6.10159e-13 0)
(580 -5.46398e-13 0)
(580 5.70774e-15 0)
(580 6.05545e-13 0)
(580 4.26175e-13 0)
(580 2.71099e-13 0)
(580 2.8287e-13 0)
(580 3.2824e-13 0)
(580 2.52139e-13 0)
(580 4.44823e-13 0)
(580 4.51947e-13 0)
(580 5.83754e-13 0)
(580 6.09544e-13 0)
(580 6.40541e-13 0)
(580 6.06599e-13 0)
(580 6.01297e-13 0)
(580 6.2107e-13 0)
(580 6.1589e-13 0)
(580 6.66873e-13 0)
(580 6.97524e-13 0)
(580 7.99902e-13 0)
(580 8.85231e-13 0)
(580 9.97977e-13 0)
(580 1.0893e-12 0)
(580 1.15056e-12 0)
(580 1.08516e-12 0)
(580 1.07775e-12 0)
(580 1.10914e-12 0)
(580 1.16573e-12 0)
(580 1.35054e-12 0)
(580 1.34856e-12 0)
(580 1.21681e-12 0)
(580 1.57977e-12 0)
(580 1.9615e-12 0)
(580 2.07142e-12 0)
(580 -4.50035e-14 0)
(580 -1.40994e-13 0)
(580 -1.42083e-13 0)
(580 -2.11552e-13 0)
(580 -1.63064e-13 0)
(580 -1.76737e-13 0)
(580 -2.01837e-13 0)
(580 -2.1402e-13 0)
(580 -1.31482e-13 0)
(580 -1.3564e-13 0)
(580 -1.77323e-13 0)
(580 -1.27938e-13 0)
(580 -1.58963e-13 0)
(580 -3.48979e-13 0)
(580 -4.5385e-13 0)
(580 -4.57948e-13 0)
(580 -4.73273e-13 0)
(580 -2.73661e-13 0)
(580 -2.94506e-14 0)
(580 3.4644e-14 0)
(580 7.30561e-14 0)
(580 2.24799e-13 0)
(580 4.32728e-13 0)
(580 5.14852e-13 0)
(580 5.36572e-13 0)
(580 6.07396e-13 0)
(580 6.83717e-13 0)
(580 7.59963e-13 0)
(580 7.47029e-13 0)
(580 7.3964e-13 0)
(580 6.57425e-13 0)
(580 6.01633e-13 0)
(580 4.94524e-13 0)
(580 3.63546e-13 0)
(580 2.89153e-13 0)
(580 1.79987e-13 0)
(580 1.7643e-13 0)
(580 2.0696e-13 0)
(580 1.14951e-13 0)
(580 -2.10083e-13 0)
(580 -6.78879e-13 0)
(580 -1.01428e-12 0)
(580 -1.03744e-12 0)
(580 -8.54715e-13 0)
(580 -9.18492e-13 0)
(580 -9.02477e-13 0)
(580 -8.5017e-13 0)
(580 -7.09631e-13 0)
(580 -3.47678e-13 0)
(580 -2.53726e-14 0)
(580 8.72048e-14 0)
(580 1.26905e-13 0)
(580 5.17551e-14 0)
(580 2.89165e-14 0)
(580 -6.90301e-14 0)
(580 -1.98786e-13 0)
(580 -4.12299e-13 0)
(580 -4.75863e-13 0)
(580 -5.98791e-13 0)
(580 -6.26513e-13 0)
(580 -6.06382e-13 0)
(580 -4.04523e-13 0)
(580 -2.41764e-13 0)
(580 2.44728e-14 0)
(580 2.05717e-13 0)
(580 2.75772e-13 0)
(580 2.52914e-14 0)
(580 8.18149e-15 0)
(580 -1.12748e-15 0)
(580 -9.20122e-14 0)
(580 -1.08539e-13 0)
(580 -4.56732e-15 0)
(580 1.16203e-13 0)
(580 2.86928e-13 0)
(580 3.4293e-13 0)
(580 4.90493e-13 0)
(580 6.49966e-13 0)
(580 7.66291e-13 0)
(580 1.08893e-12 0)
(580 1.46547e-12 0)
(580 -3.2728e-14 0)
(580 -1.8724e-13 0)
(580 -1.21818e-13 0)
(580 -1.63526e-14 0)
(580 1.56741e-13 0)
(580 2.37232e-13 0)
(580 1.15341e-13 0)
(580 8.19285e-14 0)
(580 1.08035e-13 0)
(580 6.31668e-14 0)
(580 3.07656e-14 0)
(580 2.5607e-14 0)
(580 6.74101e-14 0)
(580 7.0475e-14 0)
(580 1.04615e-13 0)
(580 1.13514e-13 0)
(580 1.27039e-13 0)
(580 6.46207e-14 0)
(580 -1.08007e-13 0)
(580 1.73801e-13 0)
(580 5.98956e-13 0)
(580 7.47783e-13 0)
(580 8.96511e-13 0)
(580 1.00917e-12 0)
(580 1.32474e-12 0)
(580 1.3262e-12 0)
(580 1.29893e-12 0)
(580 1.34304e-12 0)
(580 1.11653e-12 0)
(580 1.03831e-12 0)
(580 7.47148e-13 0)
(580 7.10176e-13 0)
(580 6.51434e-13 0)
(580 5.8105e-13 0)
(580 4.52187e-13 0)
(580 1.99232e-13 0)
(580 3.11867e-14 0)
(580 -3.97169e-13 0)
(580 -3.89147e-13 0)
(580 -5.78397e-13 0)
(580 -9.6058e-13 0)
(580 -1.11878e-12 0)
(580 -1.47279e-12 0)
(580 -1.41586e-12 0)
(580 -1.34993e-12 0)
(580 -1.32422e-12 0)
(580 -1.27625e-12 0)
(580 -1.29801e-12 0)
(580 -1.1306e-12 0)
(580 -7.29518e-13 0)
(580 -6.42636e-13 0)
(580 -7.34072e-13 0)
(580 -7.0386e-13 0)
(580 -4.98787e-13 0)
(580 -3.92207e-13 0)
(580 -3.88028e-13 0)
(580 -4.15494e-13 0)
(580 -5.44441e-13 0)
(580 -6.30474e-13 0)
(580 -7.02112e-13 0)
(580 -8.4696e-13 0)
(580 -1.10903e-12 0)
(580 -1.07436e-12 0)
(580 -1.1938e-12 0)
(580 -1.10771e-12 0)
(580 -1.22119e-12 0)
(580 -1.56767e-12 0)
(580 -1.8519e-12 0)
(580 -1.87401e-12 0)
(580 -1.78187e-12 0)
(580 -1.48028e-12 0)
(580 -1.0916e-12 0)
(580 -5.23311e-13 0)
(580 -1.94041e-13 0)
(580 2.56056e-13 0)
(580 4.92749e-13 0)
(580 1.09158e-12 0)
(580 1.51912e-12 0)
(580 2.02793e-12 0)
(580 2.28575e-12 0)
(580 -1.91783e-14 0)
(580 3.82854e-14 0)
(580 -2.40873e-14 0)
(580 1.54511e-13 0)
(580 1.04288e-13 0)
(580 -5.94746e-15 0)
(580 -1.81507e-14 0)
(580 4.30151e-14 0)
(580 1.07872e-13 0)
(580 1.2661e-13 0)
(580 2.69221e-13 0)
(580 3.39459e-13 0)
(580 2.58485e-13 0)
(580 2.19146e-13 0)
(580 2.21705e-13 0)
(580 1.61205e-13 0)
(580 9.60692e-14 0)
(580 7.52804e-15 0)
(580 7.29159e-14 0)
(580 2.51012e-13 0)
(580 4.19234e-13 0)
(580 5.82689e-13 0)
(580 7.35042e-13 0)
(580 8.31322e-13 0)
(580 1.08206e-12 0)
(580 1.30754e-12 0)
(580 9.65262e-13 0)
(580 8.4152e-13 0)
(580 7.4104e-13 0)
(580 5.8555e-13 0)
(580 3.17503e-13 0)
(580 -1.08212e-13 0)
(580 -1.91025e-13 0)
(580 -1.73251e-13 0)
(580 -1.5607e-13 0)
(580 -2.5424e-13 0)
(580 -1.11447e-12 0)
(580 -1.48418e-12 0)
(580 -2.0481e-12 0)
(580 -2.03221e-12 0)
(580 -1.82354e-12 0)
(580 -1.86798e-12 0)
(580 -1.80141e-12 0)
(580 -1.88793e-12 0)
(580 -1.5173e-12 0)
(580 -1.08153e-12 0)
(580 -1.13822e-12 0)
(580 -1.24245e-12 0)
(580 -1.14591e-12 0)
(580 -1.28327e-12 0)
(580 -8.16617e-13 0)
(580 -5.35769e-13 0)
(580 -2.10381e-13 0)
(580 -6.3774e-14 0)
(580 -1.27252e-13 0)
(580 -2.2686e-13 0)
(580 -2.47778e-13 0)
(580 -4.41e-13 0)
(580 -5.92949e-13 0)
(580 -7.90478e-13 0)
(580 -1.16451e-12 0)
(580 -1.31802e-12 0)
(580 -1.60273e-12 0)
(580 -1.94807e-12 0)
(580 -2.09111e-12 0)
(580 -2.1623e-12 0)
(580 -2.10114e-12 0)
(580 -2.06323e-12 0)
(580 -1.68371e-12 0)
(580 -1.62803e-12 0)
(580 -1.67461e-12 0)
(580 -1.3703e-12 0)
(580 -1.16332e-12 0)
(580 -6.55821e-13 0)
(580 -2.26007e-14 0)
(580 2.35793e-13 0)
(580 6.88034e-13 0)
(580 1.29646e-12 0)
(580 1.90549e-12 0)
(580 2.23896e-12 0)
(580 -5.16362e-14 0)
(580 -8.28522e-14 0)
(580 -2.13426e-13 0)
(580 -2.81928e-13 0)
(580 -3.83611e-13 0)
(580 -3.21531e-13 0)
(580 -2.22171e-13 0)
(580 5.75981e-14 0)
(580 7.57777e-14 0)
(580 1.20118e-13 0)
(580 5.90083e-14 0)
(580 1.0803e-13 0)
(580 2.76533e-13 0)
(580 3.9575e-13 0)
(580 4.32892e-13 0)
(580 5.26993e-13 0)
(580 5.84065e-13 0)
(580 6.90429e-13 0)
(580 6.8801e-13 0)
(580 4.194e-13 0)
(580 3.53534e-13 0)
(580 1.00904e-13 0)
(580 4.71915e-13 0)
(580 6.52686e-13 0)
(580 2.51659e-13 0)
(580 1.13018e-13 0)
(580 3.89034e-13 0)
(580 3.58709e-13 0)
(580 2.16512e-13 0)
(580 3.39889e-15 0)
(580 1.44212e-13 0)
(580 -7.79816e-15 0)
(580 -1.72505e-13 0)
(580 -2.3775e-13 0)
(580 -4.56155e-13 0)
(580 -5.63777e-13 0)
(580 -6.99052e-13 0)
(580 -6.24586e-13 0)
(580 -1.16129e-12 0)
(580 -1.48525e-12 0)
(580 -1.29442e-12 0)
(580 -1.19867e-12 0)
(580 -1.00681e-12 0)
(580 -9.61339e-13 0)
(580 -7.67627e-13 0)
(580 -8.3275e-13 0)
(580 -8.34458e-13 0)
(580 -9.72891e-13 0)
(580 -1.13548e-12 0)
(580 -1.34204e-12 0)
(580 -1.29589e-12 0)
(580 -1.10872e-12 0)
(580 -1.11961e-12 0)
(580 -1.20295e-12 0)
(580 -1.19667e-12 0)
(580 -1.21051e-12 0)
(580 -1.18506e-12 0)
(580 -1.20057e-12 0)
(580 -1.25198e-12 0)
(580 -1.49055e-12 0)
(580 -1.54117e-12 0)
(580 -1.68779e-12 0)
(580 -1.69327e-12 0)
(580 -1.69354e-12 0)
(580 -1.75016e-12 0)
(580 -1.65907e-12 0)
(580 -1.85958e-12 0)
(580 -2.0998e-12 0)
(580 -1.71843e-12 0)
(580 -1.11274e-12 0)
(580 -6.03392e-13 0)
(580 -3.98355e-13 0)
(580 -5.18184e-13 0)
(580 -6.02635e-13 0)
(580 -2.46217e-13 0)
(580 1.43844e-13 0)
(580 3.04945e-13 0)
(580 2.85141e-13 0)
(580 4.01161e-13 0)
(580 5.90186e-13 0)
(580 8.64805e-14 0)
(580 1.94895e-14 0)
(580 2.54491e-14 0)
(580 -7.35897e-14 0)
(580 -1.58493e-13 0)
(580 -9.55819e-14 0)
(580 -4.54665e-14 0)
(580 -7.67298e-14 0)
(580 -2.1271e-13 0)
(580 -2.69092e-13 0)
(580 -2.2158e-13 0)
(580 -3.06347e-13 0)
(580 -2.9829e-13 0)
(580 -3.89387e-14 0)
(580 3.13508e-13 0)
(580 7.49169e-13 0)
(580 7.58671e-13 0)
(580 6.04082e-13 0)
(580 4.50157e-13 0)
(580 1.14799e-13 0)
(580 -1.07033e-13 0)
(580 -3.94017e-13 0)
(580 -5.1527e-13 0)
(580 -5.16573e-13 0)
(580 -9.57822e-13 0)
(580 -1.20359e-12 0)
(580 -1.39601e-12 0)
(580 -1.11085e-12 0)
(580 -1.07975e-12 0)
(580 -1.44298e-12 0)
(580 -1.43154e-12 0)
(580 -1.36639e-12 0)
(580 -1.41013e-12 0)
(580 -1.45405e-12 0)
(580 -1.6536e-12 0)
(580 -1.36319e-12 0)
(580 -1.17857e-12 0)
(580 -7.71815e-13 0)
(580 -3.58929e-13 0)
(580 -3.24526e-13 0)
(580 -7.00047e-14 0)
(580 4.58763e-13 0)
(580 4.74119e-13 0)
(580 1.30308e-14 0)
(580 -3.21173e-13 0)
(580 -7.60044e-13 0)
(580 -1.01653e-12 0)
(580 -1.0657e-12 0)
(580 -1.19975e-12 0)
(580 -1.2827e-12 0)
(580 -1.52117e-12 0)
(580 -1.75758e-12 0)
(580 -1.8769e-12 0)
(580 -1.94061e-12 0)
(580 -2.16596e-12 0)
(580 -2.07719e-12 0)
(580 -2.00058e-12 0)
(580 -1.93018e-12 0)
(580 -1.94663e-12 0)
(580 -1.98329e-12 0)
(580 -1.92333e-12 0)
(580 -1.89573e-12 0)
(580 -1.82628e-12 0)
(580 -1.73966e-12 0)
(580 -1.72884e-12 0)
(580 -1.72018e-12 0)
(580 -1.75125e-12 0)
(580 -1.74597e-12 0)
(580 -1.64346e-12 0)
(580 -6.20016e-13 0)
(580 -1.25122e-13 0)
(580 6.57158e-14 0)
(580 1.19628e-13 0)
(580 3.64258e-13 0)
(580 4.55116e-13 0)
(580 4.90131e-13 0)
(580 4.93577e-13 0)
(580 2.3029e-13 0)
(580 1.52051e-13 0)
(580 3.71961e-13 0)
(580 6.20643e-14 0)
(580 1.85952e-13 0)
(580 4.43078e-13 0)
(580 3.46163e-13 0)
(580 2.35122e-13 0)
(580 2.04631e-13 0)
(580 5.75264e-14 0)
(580 -5.0429e-14 0)
(580 -1.09879e-13 0)
(580 -3.41995e-14 0)
(580 -1.08199e-13 0)
(580 -3.01373e-13 0)
(580 -6.30624e-13 0)
(580 -6.24885e-13 0)
(580 -4.80974e-13 0)
(580 -3.77732e-13 0)
(580 -3.24642e-13 0)
(580 -5.80591e-13 0)
(580 -6.30762e-13 0)
(580 -7.4475e-13 0)
(580 -7.62188e-13 0)
(580 -8.42314e-13 0)
(580 -1.01075e-12 0)
(580 -1.4282e-12 0)
(580 -1.70418e-12 0)
(580 -2.27225e-12 0)
(580 -2.55735e-12 0)
(580 -2.80449e-12 0)
(580 -2.86431e-12 0)
(580 -2.85762e-12 0)
(580 -2.89613e-12 0)
(580 -2.97262e-12 0)
(580 -2.94919e-12 0)
(580 -2.70956e-12 0)
(580 -2.21562e-12 0)
(580 -1.56945e-12 0)
(580 -5.57425e-13 0)
(580 5.11876e-13 0)
(580 1.32535e-12 0)
(580 2.43165e-12 0)
(580 2.70708e-12 0)
(580 2.43386e-12 0)
(580 1.99287e-12 0)
(580 1.61108e-12 0)
(580 8.40571e-13 0)
(580 7.4172e-14 0)
(580 -4.9276e-13 0)
(580 -9.0997e-13 0)
(580 -1.28578e-12 0)
(580 -1.68271e-12 0)
(580 -2.05573e-12 0)
(580 -2.13841e-12 0)
(580 -2.16296e-12 0)
(580 -2.1278e-12 0)
(580 -2.42702e-12 0)
(580 -2.51984e-12 0)
(580 -2.7334e-12 0)
(580 -2.7721e-12 0)
(580 -2.61958e-12 0)
(580 -2.5949e-12 0)
(580 -2.21482e-12 0)
(580 -1.81514e-12 0)
(580 -1.66033e-12 0)
(580 -1.61527e-12 0)
(580 -1.58039e-12 0)
(580 -1.45076e-12 0)
(580 -8.5719e-13 0)
(580 -3.10751e-13 0)
(580 -1.9394e-13 0)
(580 7.7767e-14 0)
(580 2.20954e-13 0)
(580 4.25695e-13 0)
(580 7.26778e-13 0)
(580 8.0202e-13 0)
(580 7.42062e-13 0)
(580 6.99185e-13 0)
(580 7.86299e-13 0)
(580 7.57887e-13 0)
(580 4.52867e-13 0)
(580 2.53449e-13 0)
(580 -3.32752e-14 0)
(580 9.22895e-15 0)
(580 -2.45929e-14 0)
(580 -1.52786e-14 0)
(580 2.24894e-14 0)
(580 -5.8748e-15 0)
(580 -7.78463e-14 0)
(580 1.06722e-14 0)
(580 1.25708e-13 0)
(580 2.47915e-13 0)
(580 2.05317e-13 0)
(580 6.22587e-14 0)
(580 -1.19944e-13 0)
(580 -5.1965e-13 0)
(580 -9.71577e-13 0)
(580 -1.32986e-12 0)
(580 -1.23563e-12 0)
(580 -1.07887e-12 0)
(580 -1.00046e-12 0)
(580 -9.82682e-13 0)
(580 -9.03282e-13 0)
(580 -8.91775e-13 0)
(580 -9.32237e-13 0)
(580 -1.27085e-12 0)
(580 -1.75627e-12 0)
(580 -2.06157e-12 0)
(580 -2.27053e-12 0)
(580 -2.49549e-12 0)
(580 -2.64588e-12 0)
(580 -2.61859e-12 0)
(580 -2.62777e-12 0)
(580 -2.62897e-12 0)
(580 -2.6122e-12 0)
(580 -2.24962e-12 0)
(580 -1.87497e-12 0)
(580 -6.44869e-13 0)
(580 -1.21512e-13 0)
(580 5.00963e-13 0)
(580 1.31788e-12 0)
(580 2.12904e-12 0)
(580 2.48873e-12 0)
(580 2.36414e-12 0)
(580 2.27942e-12 0)
(580 1.9131e-12 0)
(580 1.08916e-12 0)
(580 3.31145e-13 0)
(580 -3.57103e-13 0)
(580 -1.33474e-12 0)
(580 -2.25945e-12 0)
(580 -2.6876e-12 0)
(580 -2.64477e-12 0)
(580 -2.54692e-12 0)
(580 -2.56771e-12 0)
(580 -2.68431e-12 0)
(580 -2.80311e-12 0)
(580 -2.94761e-12 0)
(580 -2.98804e-12 0)
(580 -2.96505e-12 0)
(580 -2.76786e-12 0)
(580 -2.43382e-12 0)
(580 -2.20983e-12 0)
(580 -2.07919e-12 0)
(580 -1.94071e-12 0)
(580 -1.60621e-12 0)
(580 -1.28527e-12 0)
(580 -7.75823e-13 0)
(580 3.32067e-14 0)
(580 3.94216e-14 0)
(580 -1.76854e-13 0)
(580 -2.81816e-14 0)
(580 7.80625e-14 0)
(580 2.78003e-13 0)
(580 3.66919e-13 0)
(580 3.9503e-13 0)
(580 4.19565e-13 0)
(580 2.25848e-13 0)
(580 3.66054e-13 0)
(580 3.31161e-13 0)
(580 5.33884e-14 0)
(580 -7.34334e-13 0)
(580 -3.89474e-15 0)
(580 -4.61219e-15 0)
(580 -1.82511e-13 0)
(580 -2.12767e-13 0)
(580 -1.76091e-13 0)
(580 -5.53024e-14 0)
(580 2.46749e-15 0)
(580 9.38023e-14 0)
(580 7.28548e-14 0)
(580 -5.01096e-14 0)
(580 -1.19573e-13 0)
(580 1.67095e-14 0)
(580 1.36382e-13 0)
(580 -4.14386e-14 0)
(580 6.78025e-15 0)
(580 -5.0623e-13 0)
(580 -6.4918e-13 0)
(580 -6.32117e-13 0)
(580 -5.74338e-13 0)
(580 -5.98235e-13 0)
(580 -8.12863e-13 0)
(580 -1.1494e-12 0)
(580 -1.20072e-12 0)
(580 -1.37636e-12 0)
(580 -1.31162e-12 0)
(580 -1.46467e-12 0)
(580 -1.56929e-12 0)
(580 -1.65308e-12 0)
(580 -1.60532e-12 0)
(580 -1.50764e-12 0)
(580 -1.69267e-12 0)
(580 -1.87096e-12 0)
(580 -1.63421e-12 0)
(580 -9.70836e-13 0)
(580 -3.27454e-13 0)
(580 -5.33159e-13 0)
(580 -5.43991e-13 0)
(580 -5.23634e-13 0)
(580 -1.60584e-13 0)
(580 -1.40844e-13 0)
(580 -2.03127e-13 0)
(580 4.33754e-13 0)
(580 1.67205e-12 0)
(580 1.47721e-12 0)
(580 1.31538e-12 0)
(580 9.24881e-13 0)
(580 2.53765e-13 0)
(580 -3.91219e-13 0)
(580 -1.12211e-12 0)
(580 -1.15128e-12 0)
(580 -1.42501e-12 0)
(580 -2.64502e-12 0)
(580 -3.10659e-12 0)
(580 -3.3358e-12 0)
(580 -3.31808e-12 0)
(580 -3.33723e-12 0)
(580 -3.28407e-12 0)
(580 -3.13498e-12 0)
(580 -3.13608e-12 0)
(580 -3.05394e-12 0)
(580 -2.9248e-12 0)
(580 -2.92963e-12 0)
(580 -2.5308e-12 0)
(580 -2.08799e-12 0)
(580 -1.35902e-12 0)
(580 -6.50347e-13 0)
(580 -1.94933e-13 0)
(580 2.7345e-14 0)
(580 2.06599e-14 0)
(580 -1.73215e-13 0)
(580 -2.55592e-13 0)
(580 -3.65607e-13 0)
(580 -4.26489e-13 0)
(580 -5.36349e-13 0)
(580 -7.2764e-13 0)
(580 -9.54195e-13 0)
(580 -1.53381e-12 0)
(580 -1.55356e-12 0)
(580 -2.24065e-12 0)
(580 -2.4999e-12 0)
(580 -6.38939e-14 0)
(580 -1.33558e-13 0)
(580 -3.2872e-13 0)
(580 -4.31483e-13 0)
(580 -3.72808e-13 0)
(580 -3.38423e-13 0)
(580 -2.3252e-13 0)
(580 -1.14907e-13 0)
(580 -5.85887e-14 0)
(580 -1.27315e-14 0)
(580 -1.86706e-13 0)
(580 -1.97993e-13 0)
(580 -1.67692e-13 0)
(580 -1.16466e-13 0)
(580 -1.65659e-13 0)
(580 -2.65925e-13 0)
(580 -5.0683e-13 0)
(580 -6.84656e-13 0)
(580 -9.30328e-13 0)
(580 -1.04981e-12 0)
(580 -1.19141e-12 0)
(580 -1.34511e-12 0)
(580 -1.36236e-12 0)
(580 -1.23306e-12 0)
(580 -1.20686e-12 0)
(580 -1.06337e-12 0)
(580 -9.92957e-13 0)
(580 -1.16487e-12 0)
(580 -1.00851e-12 0)
(580 -9.96263e-13 0)
(580 -7.72163e-13 0)
(580 -2.19238e-13 0)
(580 1.3503e-14 0)
(580 -1.29167e-13 0)
(580 -2.39301e-13 0)
(580 -3.33422e-13 0)
(580 -3.99077e-13 0)
(580 -5.24101e-13 0)
(580 -7.12643e-13 0)
(580 -9.16735e-13 0)
(580 -1.1432e-12 0)
(580 -8.65936e-13 0)
(580 -1.01691e-12 0)
(580 -3.33138e-13 0)
(580 8.83611e-14 0)
(580 -7.02149e-14 0)
(580 -1.7139e-13 0)
(580 -7.38978e-14 0)
(580 4.30303e-14 0)
(580 -2.13535e-13 0)
(580 -1.11744e-12 0)
(580 -1.68256e-12 0)
(580 -2.29042e-12 0)
(580 -2.58098e-12 0)
(580 -2.67278e-12 0)
(580 -2.72577e-12 0)
(580 -2.85436e-12 0)
(580 -3.12457e-12 0)
(580 -3.08393e-12 0)
(580 -2.97692e-12 0)
(580 -2.80891e-12 0)
(580 -2.56557e-12 0)
(580 -2.54119e-12 0)
(580 -1.91495e-12 0)
(580 -1.09262e-12 0)
(580 -8.92194e-13 0)
(580 -6.00689e-13 0)
(580 -1.87666e-13 0)
(580 2.28516e-13 0)
(580 1.31514e-13 0)
(580 1.92941e-14 0)
(580 -4.76179e-13 0)
(580 -8.03493e-13 0)
(580 -1.66847e-12 0)
(580 -2.22286e-12 0)
(580 -2.7078e-12 0)
(580 -2.87355e-12 0)
(580 -2.8857e-12 0)
(580 -3.20944e-12 0)
(580 -3.61798e-12 0)
(580 3.67136e-15 0)
(580 3.34564e-14 0)
(580 -3.71376e-14 0)
(580 -6.14817e-15 0)
(580 -1.12683e-13 0)
(580 -2.22686e-13 0)
(580 -3.18121e-13 0)
(580 -2.73342e-13 0)
(580 -2.21843e-13 0)
(580 -9.52419e-14 0)
(580 -1.28028e-13 0)
(580 -1.45712e-13 0)
(580 -4.20177e-13 0)
(580 -5.89508e-13 0)
(580 -8.24801e-13 0)
(580 -1.06973e-12 0)
(580 -1.17459e-12 0)
(580 -1.2107e-12 0)
(580 -1.49009e-12 0)
(580 -1.66244e-12 0)
(580 -1.63567e-12 0)
(580 -1.41725e-12 0)
(580 -1.22838e-12 0)
(580 -9.74746e-13 0)
(580 -8.68831e-13 0)
(580 -8.18534e-13 0)
(580 -6.27695e-13 0)
(580 -4.74914e-13 0)
(580 -5.29519e-13 0)
(580 -4.92393e-13 0)
(580 1.82296e-13 0)
(580 6.35699e-13 0)
(580 8.84434e-13 0)
(580 4.36501e-13 0)
(580 2.41343e-13 0)
(580 1.06151e-13 0)
(580 -1.58599e-13 0)
(580 -2.9811e-13 0)
(580 -1.10252e-12 0)
(580 -1.6837e-12 0)
(580 -1.885e-12 0)
(580 -2.32573e-12 0)
(580 -2.77415e-12 0)
(580 -2.15578e-12 0)
(580 -1.87624e-12 0)
(580 -1.91031e-12 0)
(580 -1.20264e-12 0)
(580 -7.94901e-13 0)
(580 -7.08871e-13 0)
(580 -9.96247e-13 0)
(580 -1.12196e-12 0)
(580 -8.93853e-13 0)
(580 -1.1302e-12 0)
(580 -1.30804e-12 0)
(580 -1.48763e-12 0)
(580 -1.90731e-12 0)
(580 -2.13402e-12 0)
(580 -2.15634e-12 0)
(580 -2.27134e-12 0)
(580 -1.93906e-12 0)
(580 -1.82807e-12 0)
(580 -1.60477e-12 0)
(580 -1.68925e-12 0)
(580 -1.78832e-12 0)
(580 -1.82408e-12 0)
(580 -1.90404e-12 0)
(580 -1.67676e-12 0)
(580 -1.3493e-12 0)
(580 -7.72687e-13 0)
(580 -7.38581e-13 0)
(580 -6.24262e-13 0)
(580 -7.37531e-13 0)
(580 -8.75608e-13 0)
(580 -1.64921e-12 0)
(580 -2.5122e-12 0)
(580 -2.76502e-12 0)
(580 -3.2789e-12 0)
(580 -3.50134e-12 0)
(580 -3.68116e-12 0)
(580 -3.86765e-12 0)
(580 6.20159e-14 0)
(580 1.1437e-13 0)
(580 2.7282e-13 0)
(580 5.63828e-13 0)
(580 5.53464e-13 0)
(580 5.18751e-13 0)
(580 4.36054e-13 0)
(580 3.70077e-13 0)
(580 1.90229e-13 0)
(580 1.68734e-13 0)
(580 1.79916e-14 0)
(580 -7.13842e-14 0)
(580 -8.18044e-14 0)
(580 -8.79092e-14 0)
(580 -7.52886e-14 0)
(580 -2.65206e-13 0)
(580 -3.42186e-13 0)
(580 -4.22166e-13 0)
(580 -5.38902e-13 0)
(580 -6.57806e-13 0)
(580 -5.2334e-13 0)
(580 -3.78431e-13 0)
(580 -3.72211e-13 0)
(580 -3.7889e-13 0)
(580 -3.78785e-13 0)
(580 -4.70832e-13 0)
(580 -3.08227e-13 0)
(580 1.04587e-13 0)
(580 2.62057e-13 0)
(580 4.2994e-13 0)
(580 6.7108e-13 0)
(580 7.52916e-13 0)
(580 4.02633e-13 0)
(580 6.06773e-14 0)
(580 -2.13492e-13 0)
(580 -7.79911e-13 0)
(580 -1.02041e-12 0)
(580 -1.21721e-12 0)
(580 -1.59462e-12 0)
(580 -2.10341e-12 0)
(580 -2.23282e-12 0)
(580 -2.43725e-12 0)
(580 -2.43302e-12 0)
(580 -2.2291e-12 0)
(580 -2.36803e-12 0)
(580 -1.97516e-12 0)
(580 -1.87145e-12 0)
(580 -1.33939e-12 0)
(580 -1.21487e-12 0)
(580 -1.01765e-12 0)
(580 -8.92849e-13 0)
(580 -8.04234e-13 0)
(580 -6.71541e-13 0)
(580 -6.9344e-13 0)
(580 -4.40937e-13 0)
(580 -1.12176e-13 0)
(580 -4.46184e-14 0)
(580 -1.38719e-13 0)
(580 -2.97372e-13 0)
(580 -2.46304e-13 0)
(580 -3.7684e-13 0)
(580 -1.59032e-13 0)
(580 -6.31925e-13 0)
(580 -1.2574e-12 0)
(580 -1.50516e-12 0)
(580 -1.61482e-12 0)
(580 -1.61903e-12 0)
(580 -1.71576e-12 0)
(580 -1.70674e-12 0)
(580 -1.74351e-12 0)
(580 -1.94163e-12 0)
(580 -2.24184e-12 0)
(580 -2.18203e-12 0)
(580 -3.01763e-12 0)
(580 -3.30206e-12 0)
(580 -3.63155e-12 0)
(580 -4.25332e-12 0)
(580 -4.74352e-12 0)
(580 -4.76095e-12 0)
(580 -4.52039e-12 0)
(580 1.59187e-14 0)
(580 3.9697e-14 0)
(580 2.16937e-13 0)
(580 3.48433e-13 0)
(580 4.16526e-13 0)
(580 3.7848e-13 0)
(580 2.77588e-13 0)
(580 8.6604e-14 0)
(580 -4.92868e-14 0)
(580 -1.04997e-13 0)
(580 -1.55154e-13 0)
(580 -2.41909e-13 0)
(580 -1.78817e-13 0)
(580 -1.52208e-13 0)
(580 -7.94676e-14 0)
(580 -8.51361e-14 0)
(580 -7.36953e-14 0)
(580 -1.05222e-13 0)
(580 -1.28211e-13 0)
(580 -1.69722e-13 0)
(580 -8.7795e-14 0)
(580 2.04729e-14 0)
(580 3.67371e-14 0)
(580 -1.44196e-13 0)
(580 -1.68117e-13 0)
(580 -7.54047e-14 0)
(580 -1.82454e-13 0)
(580 -5.59567e-14 0)
(580 -3.09317e-14 0)
(580 -6.10771e-14 0)
(580 -1.60677e-13 0)
(580 -5.24714e-14 0)
(580 -2.17148e-13 0)
(580 -5.37087e-13 0)
(580 -1.04439e-12 0)
(580 -1.53577e-12 0)
(580 -1.87316e-12 0)
(580 -2.10985e-12 0)
(580 -2.35622e-12 0)
(580 -2.48071e-12 0)
(580 -2.52614e-12 0)
(580 -2.42642e-12 0)
(580 -2.2465e-12 0)
(580 -2.1915e-12 0)
(580 -1.85544e-12 0)
(580 -1.5469e-12 0)
(580 -1.32008e-12 0)
(580 -7.83587e-13 0)
(580 -4.7776e-13 0)
(580 -1.47959e-14 0)
(580 1.26965e-13 0)
(580 2.18562e-14 0)
(580 1.08733e-13 0)
(580 5.44556e-13 0)
(580 7.7424e-13 0)
(580 7.95784e-13 0)
(580 7.1548e-13 0)
(580 6.18615e-13 0)
(580 8.38002e-13 0)
(580 7.89734e-13 0)
(580 7.12919e-13 0)
(580 4.90286e-13 0)
(580 8.00527e-14 0)
(580 1.38791e-13 0)
(580 -5.79495e-13 0)
(580 -7.79944e-13 0)
(580 -1.05943e-12 0)
(580 -1.90786e-12 0)
(580 -2.64624e-12 0)
(580 -2.76464e-12 0)
(580 -3.35557e-12 0)
(580 -3.9306e-12 0)
(580 -4.10997e-12 0)
(580 -4.07176e-12 0)
(580 -4.01273e-12 0)
(580 -4.12218e-12 0)
(580 -4.32598e-12 0)
(580 -4.52682e-12 0)
(580 -4.29319e-12 0)
(580 -3.95375e-12 0)
(580 1.14958e-14 0)
(580 3.45526e-15 0)
(580 -8.98466e-14 0)
(580 -1.54192e-13 0)
(580 -2.60595e-13 0)
(580 -2.06867e-13 0)
(580 -3.17009e-13 0)
(580 -3.89078e-13 0)
(580 -4.97117e-13 0)
(580 -6.22998e-13 0)
(580 -4.98799e-13 0)
(580 -3.23231e-13 0)
(580 -3.08561e-13 0)
(580 -2.63424e-13 0)
(580 -1.66051e-13 0)
(580 -9.81065e-14 0)
(580 -1.54098e-13 0)
(580 -1.94798e-13 0)
(580 -1.1565e-13 0)
(580 -3.15258e-14 0)
(580 -6.57488e-14 0)
(580 -2.52511e-13 0)
(580 -3.38559e-13 0)
(580 -2.16246e-13 0)
(580 -2.04151e-13 0)
(580 -1.34414e-13 0)
(580 -1.69239e-13 0)
(580 -3.39706e-13 0)
(580 -7.74888e-13 0)
(580 -8.49556e-13 0)
(580 -8.7871e-13 0)
(580 -9.10932e-13 0)
(580 -1.08818e-12 0)
(580 -1.13159e-12 0)
(580 -1.20622e-12 0)
(580 -1.38065e-12 0)
(580 -1.53517e-12 0)
(580 -1.69739e-12 0)
(580 -1.97124e-12 0)
(580 -2.077e-12 0)
(580 -2.27076e-12 0)
(580 -2.30519e-12 0)
(580 -2.35451e-12 0)
(580 -2.3925e-12 0)
(580 -2.25986e-12 0)
(580 -2.33093e-12 0)
(580 -1.78422e-12 0)
(580 -1.3881e-12 0)
(580 -7.31258e-13 0)
(580 -2.44495e-13 0)
(580 2.62737e-13 0)
(580 6.58894e-13 0)
(580 8.33016e-13 0)
(580 8.99401e-13 0)
(580 8.44015e-13 0)
(580 7.83642e-13 0)
(580 8.14827e-13 0)
(580 9.47097e-13 0)
(580 7.84346e-13 0)
(580 7.47972e-13 0)
(580 8.59934e-13 0)
(580 6.07521e-13 0)
(580 4.48096e-13 0)
(580 1.32221e-13 0)
(580 -7.04111e-13 0)
(580 -1.74862e-12 0)
(580 -2.13996e-12 0)
(580 -2.68145e-12 0)
(580 -3.19644e-12 0)
(580 -3.67197e-12 0)
(580 -3.96896e-12 0)
(580 -4.51834e-12 0)
(580 -4.61737e-12 0)
(580 -4.6317e-12 0)
(580 -4.48654e-12 0)
(580 -4.41332e-12 0)
(580 -4.04054e-12 0)
(580 -3.80734e-12 0)
(580 -4.22748e-12 0)
(580 -4.39849e-12 0)
(580 -2.22151e-14 0)
(580 -9.81172e-15 0)
(580 -1.49906e-13 0)
(580 -2.0476e-13 0)
(580 -2.57475e-13 0)
(580 -2.70328e-13 0)
(580 -2.62502e-13 0)
(580 -1.65936e-13 0)
(580 -1.65738e-13 0)
(580 -2.94359e-13 0)
(580 -2.7137e-13 0)
(580 -2.7557e-13 0)
(580 -2.79204e-13 0)
(580 -1.93724e-13 0)
(580 -6.73228e-14 0)
(580 -2.00159e-13 0)
(580 -2.20826e-13 0)
(580 -2.07681e-13 0)
(580 -3.37831e-13 0)
(580 -3.63504e-13 0)
(580 -4.08748e-13 0)
(580 -4.9609e-13 0)
(580 -6.43469e-13 0)
(580 -4.90733e-13 0)
(580 -4.15998e-13 0)
(580 -3.94372e-13 0)
(580 -3.09812e-13 0)
(580 -3.73498e-13 0)
(580 -3.87775e-13 0)
(580 -6.27151e-13 0)
(580 -7.74024e-13 0)
(580 -1.06332e-12 0)
(580 -1.17307e-12 0)
(580 -1.13103e-12 0)
(580 -1.1205e-12 0)
(580 -1.10134e-12 0)
(580 -1.10316e-12 0)
(580 -1.0548e-12 0)
(580 -1.08993e-12 0)
(580 -9.16286e-13 0)
(580 -8.0827e-13 0)
(580 -1.09074e-12 0)
(580 -1.21125e-12 0)
(580 -1.43857e-12 0)
(580 -1.56226e-12 0)
(580 -1.56213e-12 0)
(580 -1.29813e-12 0)
(580 -9.31541e-13 0)
(580 -5.27461e-13 0)
(580 -2.72702e-13 0)
(580 -1.16522e-14 0)
(580 2.1969e-13 0)
(580 6.16037e-13 0)
(580 1.00942e-12 0)
(580 9.98398e-13 0)
(580 1.09288e-12 0)
(580 1.15093e-12 0)
(580 1.11879e-12 0)
(580 6.88178e-13 0)
(580 2.76534e-13 0)
(580 1.40544e-13 0)
(580 1.93791e-13 0)
(580 2.7469e-13 0)
(580 1.6363e-13 0)
(580 -1.70723e-13 0)
(580 -9.34576e-13 0)
(580 -1.4139e-12 0)
(580 -1.79672e-12 0)
(580 -2.3691e-12 0)
(580 -2.84096e-12 0)
(580 -3.03416e-12 0)
(580 -3.10576e-12 0)
(580 -3.20619e-12 0)
(580 -3.40227e-12 0)
(580 -3.08705e-12 0)
(580 -2.80442e-12 0)
(580 -2.40111e-12 0)
(580 -2.31523e-12 0)
(580 -2.45189e-12 0)
(580 -3.21772e-12 0)
(580 -5.42305e-14 0)
(580 -9.87497e-14 0)
(580 -1.14502e-13 0)
(580 -1.57676e-13 0)
(580 -1.59112e-13 0)
(580 -2.44843e-13 0)
(580 -2.7649e-13 0)
(580 -1.56359e-13 0)
(580 -1.2411e-13 0)
(580 -2.4529e-13 0)
(580 -3.00432e-13 0)
(580 -1.57608e-13 0)
(580 -7.96056e-14 0)
(580 -2.41581e-13 0)
(580 -2.60673e-13 0)
(580 -2.64259e-13 0)
(580 -1.85753e-13 0)
(580 -2.22617e-13 0)
(580 -2.23217e-13 0)
(580 -1.62476e-13 0)
(580 -9.65044e-14 0)
(580 -1.15499e-13 0)
(580 -8.67932e-14 0)
(580 -2.88628e-13 0)
(580 -3.35739e-13 0)
(580 -2.84037e-13 0)
(580 -3.74392e-13 0)
(580 -3.31703e-13 0)
(580 -2.47986e-13 0)
(580 -5.68219e-13 0)
(580 -6.61383e-13 0)
(580 -7.93202e-13 0)
(580 -8.68979e-13 0)
(580 -1.18425e-12 0)
(580 -1.2369e-12 0)
(580 -1.26443e-12 0)
(580 -1.17101e-12 0)
(580 -1.06453e-12 0)
(580 -7.85903e-13 0)
(580 -6.00898e-13 0)
(580 -4.9043e-13 0)
(580 -5.49975e-13 0)
(580 -6.27261e-13 0)
(580 -6.96289e-13 0)
(580 -9.75407e-13 0)
(580 -9.87556e-13 0)
(580 -9.30357e-13 0)
(580 -7.49245e-13 0)
(580 -6.55579e-13 0)
(580 -6.95091e-13 0)
(580 -6.39192e-13 0)
(580 -6.35904e-13 0)
(580 -5.92159e-13 0)
(580 -4.90669e-13 0)
(580 -5.01395e-13 0)
(580 -3.63678e-13 0)
(580 -3.7351e-13 0)
(580 -3.93903e-13 0)
(580 -4.98657e-13 0)
(580 -6.6884e-13 0)
(580 -9.72215e-13 0)
(580 -1.02379e-12 0)
(580 -1.02735e-12 0)
(580 -1.13905e-12 0)
(580 -1.21353e-12 0)
(580 -1.29838e-12 0)
(580 -1.61895e-12 0)
(580 -1.72565e-12 0)
(580 -1.852e-12 0)
(580 -2.39585e-12 0)
(580 -2.59478e-12 0)
(580 -2.58132e-12 0)
(580 -2.61291e-12 0)
(580 -2.70293e-12 0)
(580 -2.51484e-12 0)
(580 -2.37788e-12 0)
(580 -2.42384e-12 0)
(580 -2.48858e-12 0)
(580 -2.58443e-12 0)
(580 -2.6959e-12 0)
(580 -1.79953e-13 0)
(580 -3.52005e-13 0)
(580 -4.79618e-13 0)
(580 -6.55094e-13 0)
(580 -6.44581e-13 0)
(580 -6.03109e-13 0)
(580 -5.76544e-13 0)
(580 -5.22744e-13 0)
(580 -4.63898e-13 0)
(580 -4.10121e-13 0)
(580 -1.89824e-13 0)
(580 -9.52897e-14 0)
(580 -3.2861e-14 0)
(580 -4.96122e-14 0)
(580 -7.56368e-14 0)
(580 3.31866e-13 0)
(580 3.84115e-13 0)
(580 4.66207e-13 0)
(580 6.49387e-13 0)
(580 6.10886e-13 0)
(580 5.3618e-13 0)
(580 5.74764e-13 0)
(580 4.66837e-13 0)
(580 1.79593e-13 0)
(580 1.1576e-14 0)
(580 -6.95015e-14 0)
(580 -2.7402e-13 0)
(580 -2.10619e-13 0)
(580 -1.56094e-13 0)
(580 -2.11546e-13 0)
(580 -2.90256e-13 0)
(580 -4.16137e-13 0)
(580 -5.49162e-13 0)
(580 -6.76505e-13 0)
(580 -6.92205e-13 0)
(580 -7.35239e-13 0)
(580 -8.04437e-13 0)
(580 -8.81358e-13 0)
(580 -9.02594e-13 0)
(580 -9.27247e-13 0)
(580 -9.30983e-13 0)
(580 -1.01267e-12 0)
(580 -1.06439e-12 0)
(580 -1.08017e-12 0)
(580 -1.15389e-12 0)
(580 -1.20825e-12 0)
(580 -1.35189e-12 0)
(580 -1.4697e-12 0)
(580 -1.74789e-12 0)
(580 -1.84962e-12 0)
(580 -2.05298e-12 0)
(580 -2.19338e-12 0)
(580 -2.4016e-12 0)
(580 -2.70111e-12 0)
(580 -2.8735e-12 0)
(580 -2.9568e-12 0)
(580 -3.09537e-12 0)
(580 -3.16259e-12 0)
(580 -3.25724e-12 0)
(580 -3.25892e-12 0)
(580 -3.39449e-12 0)
(580 -3.41646e-12 0)
(580 -3.66574e-12 0)
(580 -3.77286e-12 0)
(580 -3.88059e-12 0)
(580 -3.79275e-12 0)
(580 -3.78182e-12 0)
(580 -3.84238e-12 0)
(580 -3.89867e-12 0)
(580 -3.95454e-12 0)
(580 -4.02086e-12 0)
(580 -3.8917e-12 0)
(580 -3.8065e-12 0)
(580 -3.79012e-12 0)
(580 -4.01106e-12 0)
(580 -4.09511e-12 0)
(580 -4.2248e-12 0)
(580 -4.4476e-12 0)
(580 -4.56031e-12 0)
(580 -4.55008e-12 0)
(580 -6.6417e-16 0)
(580 7.69472e-15 0)
(580 -1.47723e-14 0)
(580 9.02772e-14 0)
(580 7.30921e-14 0)
(580 -5.99447e-14 0)
(580 -7.97157e-14 0)
(580 -1.56677e-14 0)
(580 8.28161e-15 0)
(580 1.73014e-13 0)