/*--------------------------------*- C++ -*----------------------------------*\
| =========                 |                                                 |
| \\      /  F ield         | OpenFOAM: The Open Source CFD Toolbox           |
|  \\    /   O peration     | Version:  2306                                  |
|   \\  /    A nd           | Website:  www.openfoam.com                      |
|    \\/     M anipulation  |                                                 |
\*---------------------------------------------------------------------------*/
FoamFile
{
    version     2.0;
    format      ascii;
    arch        "LSB;label=32;scalar=64";
    class       volVectorField;
    location    "3e-05";
    object      U;
}
// * * * * * * * * * * * * * * * * * * * * * * * * * * * * * * * * * * * * * //

dimensions      [0 1 -1 0 0 0 0];

internalField   nonuniform List<vector> 
8983
(
(580 1.66377e-14 0)
(580 4.80743e-14 0)
(580 1.95476e-13 0)
(580 1.26944e-13 0)
(580 -9.80941e-14 0)
(580 -2.78501e-13 0)
(580 -3.84358e-13 0)
(580 -4.30967e-13 0)
(580 -5.0682e-13 0)
(580 -6.66384e-13 0)
(580 -8.91139e-13 0)
(580 -7.51831e-13 0)
(580 -9.57615e-13 0)
(580 -1.12314e-12 0)
(580 -1.24282e-12 0)
(580 -1.1531e-12 0)
(580 -1.31114e-12 0)
(580 -1.37795e-12 0)
(580 -1.13186e-12 0)
(580 -1.05372e-12 0)
(580 -9.9826e-13 0)
(580 -1.04699e-12 0)
(580 -1.1015e-12 0)
(580 -1.19378e-12 0)
(580 -1.4174e-12 0)
(580 -1.53495e-12 0)
(580 -1.62882e-12 0)
(580 -1.83853e-12 0)
(580 -1.86526e-12 0)
(580 -1.817e-12 0)
(580 -2.0256e-12 0)
(580 -2.12879e-12 0)
(580 -2.17928e-12 0)
(580 -2.2764e-12 0)
(580 -2.44582e-12 0)
(580 -2.50912e-12 0)
(580 -2.46025e-12 0)
(580 -2.36118e-12 0)
(580 -2.43728e-12 0)
(580 -2.45545e-12 0)
(580 -2.47208e-12 0)
(580 -2.38344e-12 0)
(580 -2.34687e-12 0)
(580 -5.06026e-14 0)
(580 -5.37701e-14 0)
(580 -3.32677e-14 0)
(580 -3.17043e-14 0)
(580 -1.44128e-14 0)
(580 3.63763e-14 0)
(580 7.89033e-14 0)
(580 -6.57348e-14 0)
(580 -1.64225e-13 0)
(580 -2.75655e-13 0)
(580 -1.4839e-13 0)
(580 -4.19557e-13 0)
(580 -7.76352e-13 0)
(580 -8.04755e-13 0)
(580 -8.24448e-13 0)
(580 -9.62375e-13 0)
(580 -9.78118e-13 0)
(580 -1.12477e-12 0)
(580 -1.27774e-12 0)
(580 -1.11213e-12 0)
(580 -1.28881e-12 0)
(580 -1.31872e-12 0)
(580 -1.35957e-12 0)
(580 -1.3866e-12 0)
(580 -1.46943e-12 0)
(580 -1.59263e-12 0)
(580 -1.68886e-12 0)
(580 -1.75317e-12 0)
(580 -1.77715e-12 0)
(580 -1.91865e-12 0)
(580 -1.99502e-12 0)
(580 -2.01657e-12 0)
(580 -2.17374e-12 0)
(580 -2.36005e-12 0)
(580 -2.39848e-12 0)
(580 -2.44668e-12 0)
(580 -2.55993e-12 0)
(580 -2.58632e-12 0)
(580 -2.60269e-12 0)
(580 -2.59133e-12 0)
(580 -2.54624e-12 0)
(580 -2.56358e-12 0)
(580 -2.49221e-12 0)
(580 -2.55686e-12 0)
(580 -2.46993e-12 0)
(580 -2.71979e-12 0)
(580 -2.76306e-12 0)
(580 -2.64729e-12 0)
(580 -2.52906e-12 0)
(580 -2.42338e-12 0)
(580 -2.40556e-12 0)
(580 -2.57954e-12 0)
(580 -2.6942e-12 0)
(580 -2.70598e-12 0)
(580 -2.47934e-12 0)
(580 -2.35798e-12 0)
(580 -2.25962e-12 0)
(580 -2.16385e-12 0)
(580 -2.17608e-12 0)
(580 -2.11895e-12 0)
(580 -2.1155e-12 0)
(580 -2.15953e-12 0)
(580 -2.21411e-12 0)
(580 -2.1693e-12 0)
(580 -2.04706e-12 0)
(580 -1.8037e-12 0)
(580 -1.40244e-12 0)
(580 -1.16466e-12 0)
(580 -8.23268e-13 0)
(580 -4.73862e-13 0)
(580 -4.66197e-13 0)
(580 -3.54232e-13 0)
(580 -2.28677e-13 0)
(580 -2.23026e-13 0)
(580 -4.49857e-13 0)
(580 -6.01052e-13 0)
(580 -4.99196e-13 0)
(580 -4.82012e-13 0)
(580 -3.88941e-13 0)
(580 -3.03715e-13 0)
(580 8.46209e-15 0)
(580 1.03929e-13 0)
(580 -4.32985e-14 0)
(580 -2.72228e-14 0)
(580 5.9891e-15 0)
(580 1.67579e-14 0)
(580 6.03988e-14 0)
(580 4.71973e-14 0)
(580 -5.76485e-14 0)
(580 8.68788e-14 0)
(580 2.89019e-14 0)
(580 -1.5187e-13 0)
(580 -1.74748e-13 0)
(580 -1.34608e-13 0)
(580 -2.18092e-13 0)
(580 -5.29745e-13 0)
(580 -7.37546e-13 0)
(580 -1.03695e-12 0)
(580 -1.22555e-12 0)
(580 -1.27603e-12 0)
(580 -1.37968e-12 0)
(580 -1.43824e-12 0)
(580 -1.50273e-12 0)
(580 -1.498e-12 0)
(580 -1.54349e-12 0)
(580 -1.66871e-12 0)
(580 -1.78639e-12 0)
(580 -1.91943e-12 0)
(580 -2.09683e-12 0)
(580 -2.20861e-12 0)
(580 -2.29337e-12 0)
(580 -2.39753e-12 0)
(580 -2.635e-12 0)
(580 -2.86832e-12 0)
(580 -3.13723e-12 0)
(580 -3.17053e-12 0)
(580 -3.18478e-12 0)
(580 -3.28053e-12 0)
(580 -3.35777e-12 0)
(580 -3.53157e-12 0)
(580 -3.59403e-12 0)
(580 -3.68705e-12 0)
(580 -3.70817e-12 0)
(580 -3.82282e-12 0)
(580 -3.99251e-12 0)
(580 -4.12773e-12 0)
(580 -4.41251e-12 0)
(580 -4.37075e-12 0)
(580 -4.21044e-12 0)
(580 -4.28378e-12 0)
(580 -4.32295e-12 0)
(580 -4.32398e-12 0)
(580 -4.31206e-12 0)
(580 -4.31657e-12 0)
(580 -4.10543e-12 0)
(580 -3.77996e-12 0)
(580 -3.48123e-12 0)
(580 -3.4236e-12 0)
(580 -3.39784e-12 0)
(580 -3.39807e-12 0)
(580 -3.28934e-12 0)
(580 -2.90671e-12 0)
(580 -2.87686e-12 0)
(580 -2.66154e-12 0)
(580 -2.32193e-12 0)
(580 -1.83587e-12 0)
(580 -1.4417e-12 0)
(580 -9.81187e-13 0)
(580 -5.26109e-13 0)
(580 -1.01687e-13 0)
(580 -1.30435e-13 0)
(580 1.21713e-13 0)
(580 5.18468e-13 0)
(580 4.63619e-13 0)
(580 4.03015e-13 0)
(580 3.83053e-13 0)
(580 3.79583e-13 0)
(580 7.48023e-14 0)
(580 -3.23176e-14 0)
(580 -1.91614e-13 0)
(580 -1.00524e-14 0)
(580 -8.04123e-14 0)
(580 -2.11512e-13 0)
(580 -2.91484e-13 0)
(580 -3.39099e-13 0)
(580 -4.41525e-13 0)
(580 -6.36986e-13 0)
(580 -5.20236e-13 0)
(580 -4.32149e-13 0)
(580 -3.18792e-13 0)
(580 -1.61725e-13 0)
(580 -1.41185e-13 0)
(580 -6.56203e-14 0)
(580 -3.88077e-13 0)
(580 -4.81424e-13 0)
(580 -5.50127e-13 0)
(580 -8.53053e-13 0)
(580 -9.65358e-13 0)
(580 -8.46226e-13 0)
(580 -9.65021e-13 0)
(580 -1.0216e-12 0)
(580 -1.1222e-12 0)
(580 -1.37105e-12 0)
(580 -1.66252e-12 0)
(580 -2.05343e-12 0)
(580 -2.16988e-12 0)
(580 -2.42239e-12 0)
(580 -2.71842e-12 0)
(580 -2.88748e-12 0)
(580 -3.06095e-12 0)
(580 -3.06186e-12 0)
(580 -3.07918e-12 0)
(580 -3.17622e-12 0)
(580 -3.31664e-12 0)
(580 -3.80479e-12 0)
(580 -4.10108e-12 0)
(580 -4.21672e-12 0)
(580 -4.24447e-12 0)
(580 -4.23695e-12 0)
(580 -4.13495e-12 0)
(580 -4.07621e-12 0)
(580 -4.0399e-12 0)
(580 -4.21704e-12 0)
(580 -4.52646e-12 0)
(580 -4.66611e-12 0)
(580 -4.85507e-12 0)
(580 -5.01974e-12 0)
(580 -5.30454e-12 0)
(580 -5.53723e-12 0)
(580 -5.51358e-12 0)
(580 -5.59248e-12 0)
(580 -5.48386e-12 0)
(580 -5.62498e-12 0)
(580 -5.79027e-12 0)
(580 -5.75021e-12 0)
(580 -5.46687e-12 0)
(580 -4.84228e-12 0)
(580 -4.10956e-12 0)
(580 -3.25883e-12 0)
(580 -2.89459e-12 0)
(580 -2.46953e-12 0)
(580 -1.74495e-12 0)
(580 -1.23561e-12 0)
(580 -1.03709e-12 0)
(580 -6.87459e-13 0)
(580 -2.09348e-13 0)
(580 -6.57726e-15 0)
(580 -4.9438e-14 0)
(580 -1.24964e-13 0)
(580 -2.12715e-13 0)
(580 2.38748e-14 0)
(580 1.42464e-13 0)
(580 1.42345e-13 0)
(580 1.38536e-13 0)
(580 2.43962e-13 0)
(580 1.60172e-13 0)
(580 -1.2484e-13 0)
(580 -2.04736e-13 0)
(580 -6.14534e-13 0)
(580 -9.98897e-13 0)
(580 3.36802e-14 0)
(580 -6.89276e-14 0)
(580 -8.24312e-14 0)
(580 -8.55231e-15 0)
(580 -5.57831e-14 0)
(580 -1.10168e-13 0)
(580 -1.44812e-13 0)
(580 -2.26763e-13 0)
(580 -4.20713e-13 0)
(580 -3.90007e-13 0)
(580 -4.75286e-13 0)
(580 -4.94808e-13 0)
(580 -6.43601e-13 0)
(580 -7.29814e-13 0)
(580 -6.23532e-13 0)
(580 -5.36926e-13 0)
(580 -5.55686e-13 0)
(580 -5.82892e-13 0)
(580 -7.80799e-13 0)
(580 -1.01061e-12 0)
(580 -9.8052e-13 0)
(580 -9.17296e-13 0)
(580 -8.82628e-13 0)
(580 -1.24811e-12 0)
(580 -1.50401e-12 0)
(580 -1.82657e-12 0)
(580 -2.29701e-12 0)
(580 -2.6257e-12 0)
(580 -2.95108e-12 0)
(580 -2.94899e-12 0)
(580 -2.81012e-12 0)
(580 -2.79602e-12 0)
(580 -2.98953e-12 0)
(580 -3.12086e-12 0)
(580 -3.20591e-12 0)
(580 -3.23027e-12 0)
(580 -3.19889e-12 0)
(580 -3.18014e-12 0)
(580 -3.16661e-12 0)
(580 -3.13825e-12 0)
(580 -3.23576e-12 0)
(580 -3.44177e-12 0)
(580 -3.90129e-12 0)
(580 -4.32242e-12 0)
(580 -4.44696e-12 0)
(580 -4.72328e-12 0)
(580 -4.93406e-12 0)
(580 -4.95801e-12 0)
(580 -5.28733e-12 0)
(580 -5.40274e-12 0)
(580 -5.38788e-12 0)
(580 -5.54037e-12 0)
(580 -5.46432e-12 0)
(580 -5.26236e-12 0)
(580 -5.62454e-12 0)
(580 -4.48596e-12 0)
(580 -3.85213e-12 0)
(580 -3.11285e-12 0)
(580 -2.58312e-12 0)
(580 -1.84166e-12 0)
(580 -1.62428e-12 0)
(580 -1.4008e-12 0)
(580 -8.11852e-13 0)
(580 -4.34621e-13 0)
(580 -2.3608e-13 0)
(580 2.78667e-13 0)
(580 9.23262e-13 0)
(580 1.08634e-12 0)
(580 9.92629e-13 0)
(580 9.72506e-13 0)
(580 1.0491e-12 0)
(580 1.12901e-12 0)
(580 1.04776e-12 0)
(580 8.36683e-13 0)
(580 4.0675e-13 0)
(580 -7.9363e-14 0)
(580 -1.02987e-12 0)
(580 -1.40082e-12 0)
(580 -2.03497e-12 0)
(580 -2.24811e-12 0)
(580 1.99186e-14 0)
(580 1.15527e-13 0)
(580 1.82346e-13 0)
(580 1.96749e-13 0)
(580 2.52487e-13 0)
(580 3.34306e-13 0)
(580 3.68033e-13 0)
(580 -1.69176e-14 0)
(580 -3.52564e-13 0)
(580 -5.26343e-13 0)
(580 -9.83225e-13 0)
(580 -1.2066e-12 0)
(580 -1.13038e-12 0)
(580 -1.07482e-12 0)
(580 -1.06384e-12 0)
(580 -1.04524e-12 0)
(580 -1.00939e-12 0)
(580 -9.96784e-13 0)
(580 -1.02585e-12 0)
(580 -1.04575e-12 0)
(580 -1.18267e-12 0)
(580 -1.21176e-12 0)
(580 -1.06972e-12 0)
(580 -1.01923e-12 0)
(580 -9.8698e-13 0)
(580 -1.01557e-12 0)
(580 -1.27597e-12 0)
(580 -1.55551e-12 0)
(580 -1.46577e-12 0)
(580 -1.58759e-12 0)
(580 -1.78431e-12 0)
(580 -2.03107e-12 0)
(580 -2.14643e-12 0)
(580 -2.23043e-12 0)
(580 -2.25095e-12 0)
(580 -2.3867e-12 0)
(580 -2.47756e-12 0)
(580 -2.58963e-12 0)
(580 -2.77744e-12 0)
(580 -2.95583e-12 0)
(580 -3.19827e-12 0)
(580 -3.47164e-12 0)
(580 -3.54972e-12 0)
(580 -3.54866e-12 0)
(580 -3.48326e-12 0)
(580 -3.82226e-12 0)
(580 -4.1018e-12 0)
(580 -3.97622e-12 0)
(580 -3.74007e-12 0)
(580 -4.15241e-12 0)
(580 -4.04261e-12 0)
(580 -3.94674e-12 0)
(580 -3.60972e-12 0)
(580 -3.27804e-12 0)
(580 -3.13259e-12 0)
(580 -2.86811e-12 0)
(580 -2.80417e-12 0)
(580 -2.67905e-12 0)
(580 -2.6811e-12 0)
(580 -2.24853e-12 0)
(580 -2.02972e-12 0)
(580 -2.09343e-12 0)
(580 -2.08855e-12 0)
(580 -1.92695e-12 0)
(580 -1.73437e-12 0)
(580 -1.18385e-12 0)
(580 -5.01519e-13 0)
(580 -4.5848e-13 0)
(580 8.08028e-14 0)
(580 6.1642e-13 0)
(580 5.9034e-13 0)
(580 6.59669e-13 0)
(580 1.10981e-12 0)
(580 1.57313e-12 0)
(580 2.85756e-13 0)
(580 -6.71387e-13 0)
(580 -1.61322e-12 0)
(580 -2.34018e-12 0)
(580 -2.86519e-12 0)
(580 -2.96114e-12 0)
(580 1.61578e-14 0)
(580 1.44019e-13 0)
(580 1.38747e-13 0)
(580 8.80548e-14 0)
(580 7.54687e-15 0)
(580 1.13671e-14 0)
(580 -5.57219e-14 0)
(580 -4.98704e-14 0)
(580 -1.3555e-13 0)
(580 -3.4967e-13 0)
(580 -7.15792e-13 0)
(580 -8.97741e-13 0)
(580 -1.31943e-12 0)
(580 -1.46346e-12 0)
(580 -1.72878e-12 0)
(580 -1.9773e-12 0)
(580 -1.92433e-12 0)
(580 -1.79421e-12 0)
(580 -1.78845e-12 0)
(580 -1.67306e-12 0)
(580 -1.58625e-12 0)
(580 -1.51185e-12 0)
(580 -1.4783e-12 0)
(580 -1.44493e-12 0)
(580 -1.24937e-12 0)
(580 -1.10934e-12 0)
(580 -1.11228e-12 0)
(580 -8.57882e-13 0)
(580 -7.23252e-13 0)
(580 -9.67322e-13 0)
(580 -1.21618e-12 0)
(580 -1.77417e-12 0)
(580 -1.74709e-12 0)
(580 -1.65427e-12 0)
(580 -1.64091e-12 0)
(580 -1.78171e-12 0)
(580 -2.34574e-12 0)
(580 -2.78138e-12 0)
(580 -3.32176e-12 0)
(580 -3.64874e-12 0)
(580 -3.78636e-12 0)
(580 -3.91833e-12 0)
(580 -3.78333e-12 0)
(580 -3.66377e-12 0)
(580 -3.48325e-12 0)
(580 -3.42986e-12 0)
(580 -3.44071e-12 0)
(580 -3.11971e-12 0)
(580 -2.78592e-12 0)
(580 -2.44888e-12 0)
(580 -1.97729e-12 0)
(580 -1.51975e-12 0)
(580 -1.5082e-12 0)
(580 -1.47423e-12 0)
(580 -8.72314e-13 0)
(580 -1.25139e-12 0)
(580 -1.49367e-12 0)
(580 -1.69089e-12 0)
(580 -1.868e-12 0)
(580 -1.70737e-12 0)
(580 -1.64058e-12 0)
(580 -1.74825e-12 0)
(580 -2.04652e-12 0)
(580 -2.08102e-12 0)
(580 -1.87046e-12 0)
(580 -1.72066e-12 0)
(580 -1.47728e-12 0)
(580 -1.19755e-12 0)
(580 -3.22955e-13 0)
(580 -2.05894e-13 0)
(580 2.9193e-13 0)
(580 2.5715e-13 0)
(580 1.79695e-13 0)
(580 6.57757e-13 0)
(580 2.43895e-14 0)
(580 -9.79319e-13 0)
(580 -1.3856e-12 0)
(580 -1.58736e-12 0)
(580 -1.82382e-12 0)
(580 -2.12036e-12 0)
(580 3.58794e-15 0)
(580 -6.63174e-14 0)
(580 -8.70752e-14 0)
(580 -9.65169e-14 0)
(580 -2.47187e-13 0)
(580 -3.08607e-13 0)
(580 -6.07944e-13 0)
(580 -6.55973e-13 0)
(580 -6.62746e-13 0)
(580 -7.5138e-13 0)
(580 -6.71698e-13 0)
(580 -5.40111e-13 0)
(580 -7.4661e-13 0)
(580 -8.79088e-13 0)
(580 -7.38077e-13 0)
(580 -9.14168e-13 0)
(580 -1.01379e-12 0)
(580 -1.43502e-12 0)
(580 -1.72683e-12 0)
(580 -1.75673e-12 0)
(580 -1.57167e-12 0)
(580 -1.4812e-12 0)
(580 -1.78013e-12 0)
(580 -1.80273e-12 0)
(580 -1.60704e-12 0)
(580 -1.29314e-12 0)
(580 -8.29162e-13 0)
(580 -7.80536e-13 0)
(580 -8.75629e-13 0)
(580 -9.44816e-13 0)
(580 -1.02344e-12 0)
(580 -1.13086e-12 0)
(580 -1.40222e-12 0)
(580 -1.46802e-12 0)
(580 -1.40082e-12 0)
(580 -1.47086e-12 0)
(580 -1.83037e-12 0)
(580 -2.06012e-12 0)
(580 -2.40022e-12 0)
(580 -2.39095e-12 0)
(580 -2.98252e-12 0)
(580 -3.14797e-12 0)
(580 -3.73781e-12 0)
(580 -3.74023e-12 0)
(580 -3.50456e-12 0)
(580 -2.95548e-12 0)
(580 -2.01556e-12 0)
(580 -1.03272e-12 0)
(580 -1.46222e-13 0)
(580 3.52363e-13 0)
(580 5.96487e-13 0)
(580 5.48114e-13 0)
(580 4.53973e-13 0)
(580 3.77017e-13 0)
(580 -1.3064e-14 0)
(580 -3.41723e-13 0)
(580 -6.7271e-13 0)
(580 -1.23867e-12 0)
(580 -1.35775e-12 0)
(580 -1.32002e-12 0)
(580 -1.49764e-12 0)
(580 -1.73298e-12 0)
(580 -1.83817e-12 0)
(580 -1.90621e-12 0)
(580 -1.89597e-12 0)
(580 -1.85864e-12 0)
(580 -1.87159e-12 0)
(580 -1.80697e-12 0)
(580 -1.79745e-12 0)
(580 -1.52719e-12 0)
(580 -7.09351e-13 0)
(580 -6.58292e-13 0)
(580 -9.34239e-13 0)
(580 -6.61821e-13 0)
(580 -9.13639e-13 0)
(580 -1.59686e-12 0)
(580 -1.67986e-12 0)
(580 -1.70053e-12 0)
(580 -1.29804e-12 0)
(580 -1.20602e-12 0)
(580 -1.36669e-14 0)
(580 -1.05551e-13 0)
(580 -1.4033e-13 0)
(580 -1.42015e-13 0)
(580 -2.85505e-13 0)
(580 -3.82737e-13 0)
(580 -4.92491e-13 0)
(580 -5.42665e-13 0)
(580 -5.92626e-13 0)
(580 -5.64634e-13 0)
(580 -4.22149e-13 0)
(580 -5.45599e-13 0)
(580 -4.90589e-13 0)
(580 -4.24477e-13 0)
(580 -3.46981e-13 0)
(580 -4.39355e-13 0)
(580 -5.436e-13 0)
(580 -5.63311e-13 0)
(580 -6.31724e-13 0)
(580 -8.91815e-13 0)
(580 -1.23949e-12 0)
(580 -1.28012e-12 0)
(580 -1.31101e-12 0)
(580 -1.18046e-12 0)
(580 -1.0322e-12 0)
(580 -9.40551e-13 0)
(580 -7.59736e-13 0)
(580 -7.11136e-13 0)
(580 -8.45737e-13 0)
(580 -8.9832e-13 0)
(580 -1.06627e-12 0)
(580 -1.24826e-12 0)
(580 -1.63657e-12 0)
(580 -1.83259e-12 0)
(580 -1.89554e-12 0)
(580 -2.19249e-12 0)
(580 -2.48455e-12 0)
(580 -2.84297e-12 0)
(580 -2.64922e-12 0)
(580 -2.67595e-12 0)
(580 -2.79213e-12 0)
(580 -2.74932e-12 0)
(580 -1.97367e-12 0)
(580 -1.63744e-12 0)
(580 -2.09551e-12 0)
(580 -1.85399e-12 0)
(580 -1.01661e-12 0)
(580 -4.1171e-13 0)
(580 -1.39365e-13 0)
(580 9.10391e-14 0)
(580 2.14215e-13 0)
(580 2.10681e-13 0)
(580 1.28671e-13 0)
(580 -2.0931e-14 0)
(580 -3.07113e-13 0)
(580 -4.2722e-13 0)
(580 -4.66223e-13 0)
(580 -5.07315e-13 0)
(580 -6.01383e-13 0)
(580 -9.30672e-13 0)
(580 -1.15242e-12 0)
(580 -1.25756e-12 0)
(580 -1.13581e-12 0)
(580 -1.23413e-12 0)
(580 -1.63583e-12 0)
(580 -2.19049e-12 0)
(580 -2.21314e-12 0)
(580 -2.26719e-12 0)
(580 -2.36246e-12 0)
(580 -2.21666e-12 0)
(580 -2.1085e-12 0)
(580 -1.88322e-12 0)
(580 -1.82921e-12 0)
(580 -1.92258e-12 0)
(580 -1.40783e-12 0)
(580 -1.30695e-12 0)
(580 -1.08161e-12 0)
(580 -1.0419e-12 0)
(580 -6.72119e-13 0)
(580 -6.00625e-13 0)
(580 -2.61389e-14 0)
(580 -3.66563e-15 0)
(580 -7.08169e-14 0)
(580 -2.19866e-13 0)
(580 -2.39037e-13 0)
(580 -2.70172e-13 0)
(580 -2.17608e-13 0)
(580 -1.22487e-13 0)
(580 1.0855e-14 0)
(580 1.29264e-13 0)
(580 1.92319e-13 0)
(580 1.89457e-13 0)
(580 3.32793e-13 0)
(580 3.13048e-13 0)
(580 1.33619e-13 0)
(580 -9.44767e-14 0)
(580 -9.73357e-14 0)
(580 1.18979e-13 0)
(580 2.25979e-13 0)
(580 2.54142e-13 0)
(580 7.1698e-14 0)
(580 2.38666e-14 0)
(580 -2.93535e-14 0)
(580 -4.78664e-14 0)
(580 -1.53977e-13 0)
(580 -2.94719e-13 0)
(580 -3.19834e-13 0)
(580 -1.86383e-13 0)
(580 -5.33341e-13 0)
(580 -7.00696e-13 0)
(580 -8.54961e-13 0)
(580 -1.29924e-12 0)
(580 -1.60392e-12 0)
(580 -1.67318e-12 0)
(580 -1.97116e-12 0)
(580 -1.90378e-12 0)
(580 -1.69832e-12 0)
(580 -1.78729e-12 0)
(580 -1.78157e-12 0)
(580 -1.65771e-12 0)
(580 -1.78767e-12 0)
(580 -1.39405e-12 0)
(580 -9.85421e-13 0)
(580 -5.28547e-13 0)
(580 -4.66522e-13 0)
(580 -2.76305e-13 0)
(580 -9.07827e-14 0)
(580 -2.20604e-14 0)
(580 -1.41658e-14 0)
(580 -1.11485e-13 0)
(580 -4.49582e-13 0)
(580 -5.49812e-13 0)
(580 -5.84483e-13 0)
(580 -6.13964e-13 0)
(580 -6.07132e-13 0)
(580 -7.14788e-13 0)
(580 -9.08674e-13 0)
(580 -8.26316e-13 0)
(580 -8.25523e-13 0)
(580 -1.14283e-12 0)
(580 -1.24608e-12 0)
(580 -1.03367e-12 0)
(580 -9.12655e-13 0)
(580 -1.09884e-12 0)
(580 -1.22745e-12 0)
(580 -1.43457e-12 0)
(580 -1.94938e-12 0)
(580 -2.39774e-12 0)
(580 -2.63681e-12 0)
(580 -2.74691e-12 0)
(580 -2.93909e-12 0)
(580 -2.72586e-12 0)
(580 -2.26187e-12 0)
(580 -2.77449e-12 0)
(580 -2.73198e-12 0)
(580 -1.78433e-12 0)
(580 -5.98605e-13 0)
(580 -2.7705e-14 0)
(580 -1.00472e-13 0)
(580 -1.87682e-13 0)
(580 3.49301e-14 0)
(580 7.48628e-14 0)
(580 1.0545e-13 0)
(580 1.26803e-13 0)
(580 1.70959e-13 0)
(580 1.86609e-13 0)
(580 1.7027e-13 0)
(580 2.12477e-13 0)
(580 3.86354e-13 0)
(580 4.37831e-13 0)
(580 5.11619e-13 0)
(580 7.16247e-13 0)
(580 8.64106e-13 0)
(580 9.4437e-13 0)
(580 9.0314e-13 0)
(580 9.84129e-13 0)
(580 1.28371e-12 0)
(580 1.51523e-12 0)
(580 1.65549e-12 0)
(580 1.72054e-12 0)
(580 1.76067e-12 0)
(580 1.60743e-12 0)
(580 1.31245e-12 0)
(580 8.94232e-13 0)
(580 6.96086e-13 0)
(580 5.7636e-13 0)
(580 5.02986e-13 0)
(580 5.50737e-13 0)
(580 1.56766e-13 0)
(580 -2.24873e-13 0)
(580 -6.62567e-13 0)
(580 -8.54803e-13 0)
(580 -1.18175e-12 0)
(580 -1.5483e-12 0)
(580 -1.48046e-12 0)
(580 -1.14603e-12 0)
(580 -6.18738e-13 0)
(580 -1.99996e-13 0)
(580 -3.44043e-13 0)
(580 -3.20018e-14 0)
(580 8.01555e-14 0)
(580 2.40331e-13 0)
(580 5.28681e-13 0)
(580 8.01699e-13 0)
(580 1.30048e-12 0)
(580 9.1381e-13 0)
(580 6.10303e-13 0)
(580 3.23272e-13 0)
(580 5.52077e-14 0)
(580 -2.0651e-13 0)
(580 -4.17708e-13 0)
(580 -6.14696e-13 0)
(580 -4.92849e-13 0)
(580 -2.42455e-13 0)
(580 -1.24897e-13 0)
(580 -2.24725e-13 0)
(580 -2.78841e-13 0)
(580 -2.50709e-13 0)
(580 -2.6534e-13 0)
(580 -3.3537e-13 0)
(580 -5.20969e-13 0)
(580 -6.16725e-13 0)
(580 -9.10359e-13 0)
(580 -1.29062e-12 0)
(580 -1.57222e-12 0)
(580 -1.80503e-12 0)
(580 -2.04652e-12 0)
(580 -2.32854e-12 0)
(580 -2.54511e-12 0)
(580 -2.65055e-12 0)
(580 -2.73326e-12 0)
(580 -2.58755e-12 0)
(580 -2.64836e-12 0)
(580 -2.85576e-12 0)
(580 -2.17368e-12 0)
(580 -1.15613e-12 0)
(580 -6.37131e-13 0)
(580 -1.16286e-13 0)
(580 3.13565e-13 0)
(580 1.75571e-13 0)
(580 1.06103e-13 0)
(580 9.04659e-14 0)
(580 7.78084e-14 0)
(580 1.67198e-13 0)
(580 3.01215e-13 0)
(580 4.93409e-13 0)
(580 4.81402e-13 0)
(580 4.11235e-13 0)
(580 4.83128e-13 0)
(580 6.28732e-13 0)
(580 7.09039e-13 0)
(580 9.46275e-13 0)
(580 1.14179e-12 0)
(580 1.08416e-12 0)
(580 1.13809e-12 0)
(580 1.4322e-12 0)
(580 1.56789e-12 0)
(580 1.51139e-12 0)
(580 1.73442e-12 0)
(580 1.71317e-12 0)
(580 1.70796e-12 0)
(580 1.7382e-12 0)
(580 1.81352e-12 0)
(580 1.8215e-12 0)
(580 1.95522e-12 0)
(580 2.04492e-12 0)
(580 1.8061e-12 0)
(580 1.7809e-12 0)
(580 1.46581e-12 0)
(580 1.35184e-12 0)
(580 1.16212e-12 0)
(580 6.63045e-13 0)
(580 4.03793e-13 0)
(580 4.93974e-13 0)
(580 6.75172e-13 0)
(580 2.36497e-14 0)
(580 -1.75285e-13 0)
(580 -1.93824e-13 0)
(580 -1.74877e-14 0)
(580 2.18469e-13 0)
(580 8.6212e-13 0)
(580 8.84414e-13 0)
(580 1.02e-12 0)
(580 1.19805e-12 0)
(580 1.24723e-12 0)
(580 6.56047e-13 0)
(580 3.90522e-14 0)
(580 -2.21561e-13 0)
(580 -1.47119e-13 0)
(580 -8.78026e-14 0)
(580 -2.48706e-14 0)
(580 1.82986e-14 0)
(580 -8.91933e-14 0)
(580 -8.2107e-14 0)
(580 2.1663e-13 0)
(580 5.31121e-13 0)
(580 5.67212e-13 0)
(580 3.72004e-13 0)
(580 1.15645e-13 0)
(580 -2.70955e-13 0)
(580 -5.64132e-13 0)
(580 -9.83695e-13 0)
(580 -1.19795e-12 0)
(580 -1.44116e-12 0)
(580 -1.67994e-12 0)
(580 -1.83359e-12 0)
(580 -1.92056e-12 0)
(580 -2.0362e-12 0)
(580 -2.14833e-12 0)
(580 -2.23102e-12 0)
(580 -2.14915e-12 0)
(580 -2.07563e-12 0)
(580 -1.98706e-12 0)
(580 -1.74747e-12 0)
(580 -1.44941e-12 0)
(580 -1.04871e-12 0)
(580 -3.67243e-13 0)
(580 5.02304e-13 0)
(580 1.14286e-12 0)
(580 1.18976e-12 0)
(580 -3.15535e-14 0)
(580 -2.67705e-13 0)
(580 -4.11063e-13 0)
(580 -4.02139e-13 0)
(580 -2.5793e-13 0)
(580 -2.02743e-13 0)
(580 5.62724e-14 0)
(580 1.3386e-13 0)
(580 2.89302e-13 0)
(580 3.80183e-13 0)
(580 4.17955e-13 0)
(580 5.81309e-13 0)
(580 6.429e-13 0)
(580 5.6249e-13 0)
(580 6.34738e-13 0)
(580 7.28281e-13 0)
(580 8.99443e-13 0)
(580 8.5524e-13 0)
(580 8.30239e-13 0)
(580 9.55808e-13 0)
(580 9.93494e-13 0)
(580 9.04479e-13 0)
(580 1.1093e-12 0)
(580 1.24711e-12 0)
(580 1.3229e-12 0)
(580 1.30882e-12 0)
(580 8.89371e-13 0)
(580 6.52244e-13 0)
(580 7.83569e-13 0)
(580 9.60626e-13 0)
(580 1.07609e-12 0)
(580 1.50101e-12 0)
(580 1.95524e-12 0)
(580 2.20635e-12 0)
(580 2.22528e-12 0)
(580 1.80609e-12 0)
(580 1.49587e-12 0)
(580 1.4697e-12 0)
(580 1.31796e-12 0)
(580 1.7068e-12 0)
(580 2.38235e-12 0)
(580 2.48203e-12 0)
(580 2.22803e-12 0)
(580 1.92098e-12 0)
(580 1.44263e-12 0)
(580 1.32133e-12 0)
(580 1.44338e-12 0)
(580 1.21084e-12 0)
(580 9.71166e-13 0)
(580 8.29428e-13 0)
(580 5.76742e-13 0)
(580 5.10325e-13 0)
(580 5.71006e-13 0)
(580 7.70646e-13 0)
(580 1.05939e-12 0)
(580 1.19183e-12 0)
(580 1.15894e-12 0)
(580 9.74482e-13 0)
(580 7.39231e-13 0)
(580 5.64172e-13 0)
(580 4.19876e-13 0)
(580 2.21667e-13 0)
(580 1.62957e-13 0)
(580 -2.43274e-13 0)
(580 -4.21774e-13 0)
(580 -8.43329e-13 0)
(580 -1.18283e-12 0)
(580 -1.27497e-12 0)
(580 -1.33017e-12 0)
(580 -1.37198e-12 0)
(580 -1.4536e-12 0)
(580 -1.50613e-12 0)
(580 -1.64171e-12 0)
(580 -1.37145e-12 0)
(580 -1.36141e-12 0)
(580 -1.14186e-12 0)
(580 -7.39422e-13 0)
(580 -1.63666e-13 0)
(580 1.97311e-13 0)
(580 9.27175e-13 0)
(580 -4.26351e-14 0)
(580 6.61051e-16 0)
(580 1.7427e-13 0)
(580 1.42814e-13 0)
(580 8.65369e-14 0)
(580 8.09305e-15 0)
(580 1.57757e-13 0)
(580 4.71516e-13 0)
(580 4.25499e-13 0)
(580 2.15461e-13 0)
(580 -2.35209e-14 0)
(580 -1.27979e-13 0)
(580 -1.61115e-13 0)
(580 -8.3214e-14 0)
(580 1.75627e-13 0)
(580 2.02186e-13 0)
(580 2.72181e-13 0)
(580 3.76826e-13 0)
(580 4.78207e-13 0)
(580 7.04047e-13 0)
(580 7.27874e-13 0)
(580 7.94836e-13 0)
(580 8.36973e-13 0)
(580 6.42423e-13 0)
(580 5.1138e-13 0)
(580 3.80771e-13 0)
(580 4.29411e-13 0)
(580 4.88276e-13 0)
(580 9.66299e-13 0)
(580 1.58025e-12 0)
(580 2.09115e-12 0)
(580 2.81485e-12 0)
(580 3.26249e-12 0)
(580 3.2553e-12 0)
(580 3.50012e-12 0)
(580 3.48625e-12 0)
(580 2.91645e-12 0)
(580 2.97163e-12 0)
(580 3.18733e-12 0)
(580 3.10732e-12 0)
(580 2.94706e-12 0)
(580 2.94965e-12 0)
(580 2.89216e-12 0)
(580 2.6376e-12 0)
(580 2.43715e-12 0)
(580 2.47879e-12 0)
(580 2.6929e-12 0)
(580 2.57441e-12 0)
(580 2.33827e-12 0)
(580 2.2048e-12 0)
(580 2.01476e-12 0)
(580 1.64729e-12 0)
(580 1.72555e-12 0)
(580 2.06696e-12 0)
(580 2.05244e-12 0)
(580 1.84839e-12 0)
(580 1.78216e-12 0)
(580 1.61131e-12 0)
(580 1.83977e-12 0)
(580 1.67984e-12 0)
(580 1.54266e-12 0)
(580 1.32093e-12 0)
(580 8.88005e-13 0)
(580 6.94825e-13 0)
(580 5.7978e-13 0)
(580 -1.22235e-13 0)
(580 -5.51059e-13 0)
(580 -3.21912e-13 0)
(580 -1.52027e-13 0)
(580 -9.8848e-14 0)
(580 -2.96701e-13 0)
(580 -5.47189e-13 0)
(580 -5.95374e-13 0)
(580 -4.68651e-13 0)
(580 -2.93876e-13 0)
(580 -3.80176e-13 0)
(580 3.28829e-14 0)
(580 4.88839e-13 0)
(580 9.38076e-13 0)
(580 1.32184e-12 0)
(580 1.16448e-15 0)
(580 2.3883e-13 0)
(580 4.02463e-13 0)
(580 3.06675e-13 0)
(580 2.03415e-13 0)
(580 1.52034e-13 0)
(580 2.83106e-13 0)
(580 4.57192e-13 0)
(580 4.83459e-13 0)
(580 4.32593e-13 0)
(580 3.61845e-13 0)
(580 4.04452e-13 0)
(580 3.61177e-13 0)
(580 3.44776e-13 0)
(580 3.59499e-13 0)
(580 2.50463e-13 0)
(580 1.74707e-13 0)
(580 1.14692e-13 0)
(580 8.46875e-14 0)
(580 7.53808e-14 0)
(580 2.72489e-13 0)
(580 5.20092e-13 0)
(580 8.76942e-13 0)
(580 8.44735e-13 0)
(580 8.81536e-13 0)
(580 1.22348e-12 0)
(580 1.51611e-12 0)
(580 1.79888e-12 0)
(580 2.4103e-12 0)
(580 3.10195e-12 0)
(580 3.37824e-12 0)
(580 3.78757e-12 0)
(580 4.22481e-12 0)
(580 4.45136e-12 0)
(580 4.60402e-12 0)
(580 4.68473e-12 0)
(580 4.38378e-12 0)
(580 4.28444e-12 0)
(580 4.53973e-12 0)
(580 4.15907e-12 0)
(580 3.26548e-12 0)
(580 3.13043e-12 0)
(580 3.38791e-12 0)
(580 3.63605e-12 0)
(580 3.77228e-12 0)
(580 3.76499e-12 0)
(580 3.57683e-12 0)
(580 3.06066e-12 0)
(580 2.60621e-12 0)
(580 2.49735e-12 0)
(580 2.37122e-12 0)
(580 2.69641e-12 0)
(580 2.65267e-12 0)
(580 2.43203e-12 0)
(580 1.87041e-12 0)
(580 1.76871e-12 0)
(580 1.39293e-12 0)
(580 1.30734e-12 0)
(580 1.25779e-12 0)
(580 1.22905e-12 0)
(580 1.12316e-12 0)
(580 1.07018e-12 0)
(580 1.26247e-12 0)
(580 1.67204e-12 0)
(580 1.65278e-12 0)
(580 1.48598e-12 0)
(580 1.40278e-12 0)
(580 1.3253e-12 0)
(580 1.18404e-12 0)
(580 8.54045e-13 0)
(580 1.67605e-13 0)
(580 1.34789e-13 0)
(580 2.79219e-13 0)
(580 5.91898e-13 0)
(580 1.25902e-12 0)
(580 1.62196e-12 0)
(580 1.87795e-12 0)
(580 2.15293e-12 0)
(580 2.50045e-12 0)
(580 2.83585e-12 0)
(580 4.49072e-14 0)
(580 1.46659e-13 0)
(580 1.33252e-13 0)
(580 2.08642e-13 0)
(580 4.26639e-13 0)
(580 5.78702e-13 0)
(580 6.40314e-13 0)
(580 5.29291e-13 0)
(580 6.07279e-13 0)
(580 8.19159e-13 0)
(580 1.05729e-12 0)
(580 1.05443e-12 0)
(580 1.05257e-12 0)
(580 8.75787e-13 0)
(580 6.93692e-13 0)
(580 5.91528e-13 0)
(580 3.89052e-13 0)
(580 3.92418e-13 0)
(580 2.53378e-13 0)
(580 2.71268e-13 0)
(580 3.53156e-13 0)
(580 4.41844e-13 0)
(580 4.02482e-13 0)
(580 8.83717e-13 0)
(580 1.27673e-12 0)
(580 1.34858e-12 0)
(580 1.62873e-12 0)
(580 1.87754e-12 0)
(580 1.96195e-12 0)
(580 2.15776e-12 0)
(580 2.26248e-12 0)
(580 2.9e-12 0)
(580 3.42458e-12 0)
(580 3.99515e-12 0)
(580 4.27506e-12 0)
(580 4.57427e-12 0)
(580 5.02985e-12 0)
(580 5.65476e-12 0)
(580 5.96858e-12 0)
(580 5.7057e-12 0)
(580 5.07893e-12 0)
(580 4.38528e-12 0)
(580 3.9176e-12 0)
(580 3.2551e-12 0)
(580 3.26788e-12 0)
(580 3.24134e-12 0)
(580 3.06971e-12 0)
(580 3.1638e-12 0)
(580 2.77575e-12 0)
(580 2.32728e-12 0)
(580 2.61367e-12 0)
(580 2.73344e-12 0)
(580 2.33632e-12 0)
(580 2.29186e-12 0)
(580 2.06346e-12 0)
(580 1.64097e-12 0)
(580 1.07536e-12 0)
(580 8.14299e-13 0)
(580 7.20183e-13 0)
(580 8.6152e-13 0)
(580 9.50012e-13 0)
(580 1.08816e-12 0)
(580 1.19751e-12 0)
(580 1.36605e-12 0)
(580 1.50111e-12 0)
(580 1.78099e-12 0)
(580 1.96488e-12 0)
(580 1.5914e-12 0)
(580 9.27444e-13 0)
(580 4.83596e-13 0)
(580 5.8644e-13 0)
(580 7.93995e-13 0)
(580 8.41594e-13 0)
(580 1.08737e-12 0)
(580 1.3488e-12 0)
(580 1.50519e-12 0)
(580 1.78803e-12 0)
(580 1.80901e-12 0)
(580 1.85105e-12 0)
(580 1.94288e-12 0)
(580 6.91521e-15 0)
(580 6.67062e-16 0)
(580 1.05007e-13 0)
(580 3.11254e-13 0)
(580 5.2053e-13 0)
(580 8.04752e-13 0)
(580 7.70466e-13 0)
(580 5.03048e-13 0)
(580 4.91747e-13 0)
(580 6.71456e-13 0)
(580 6.42268e-13 0)
(580 5.83619e-13 0)
(580 6.53703e-13 0)
(580 6.50531e-13 0)
(580 6.2748e-13 0)
(580 6.94277e-13 0)
(580 6.45214e-13 0)
(580 6.73454e-13 0)
(580 5.54962e-13 0)
(580 5.56756e-13 0)
(580 4.32252e-13 0)
(580 1.44481e-13 0)
(580 5.61734e-14 0)
(580 1.40712e-13 0)
(580 5.36138e-13 0)
(580 8.39461e-13 0)
(580 1.0236e-12 0)
(580 9.05728e-13 0)
(580 1.18036e-12 0)
(580 1.1399e-12 0)
(580 1.29968e-12 0)
(580 1.77184e-12 0)
(580 2.0537e-12 0)
(580 2.52761e-12 0)
(580 2.8845e-12 0)
(580 2.99509e-12 0)
(580 3.35069e-12 0)
(580 3.67712e-12 0)
(580 3.72964e-12 0)
(580 3.95028e-12 0)
(580 3.92614e-12 0)
(580 3.84416e-12 0)
(580 3.68109e-12 0)
(580 3.74887e-12 0)
(580 3.95628e-12 0)
(580 4.14121e-12 0)
(580 4.15442e-12 0)
(580 4.18904e-12 0)
(580 4.33989e-12 0)
(580 4.1517e-12 0)
(580 3.93618e-12 0)
(580 3.74591e-12 0)
(580 3.61502e-12 0)
(580 3.34216e-12 0)
(580 3.14359e-12 0)
(580 2.95007e-12 0)
(580 2.7568e-12 0)
(580 2.70429e-12 0)
(580 2.66552e-12 0)
(580 2.64403e-12 0)
(580 2.77351e-12 0)
(580 2.65419e-12 0)
(580 2.11748e-12 0)
(580 2.0005e-12 0)
(580 2.15696e-12 0)
(580 2.45175e-12 0)
(580 2.45186e-12 0)
(580 2.20747e-12 0)
(580 2.19726e-12 0)
(580 2.42366e-12 0)
(580 2.50715e-12 0)
(580 2.63367e-12 0)
(580 3.06177e-12 0)
(580 3.14242e-12 0)
(580 3.20383e-12 0)
(580 3.36894e-12 0)
(580 3.49322e-12 0)
(580 3.56661e-12 0)
(580 3.63968e-12 0)
(580 3.74105e-12 0)
(580 -9.0276e-14 0)
(580 -1.79617e-13 0)
(580 -1.40936e-13 0)
(580 -1.82767e-13 0)
(580 -1.77042e-13 0)
(580 1.76635e-14 0)
(580 -1.90846e-13 0)
(580 -1.17456e-13 0)
(580 -3.29271e-14 0)
(580 -5.01076e-14 0)
(580 -1.3802e-13 0)
(580 -1.73213e-13 0)
(580 -1.6607e-13 0)
(580 -1.14476e-13 0)
(580 -1.81421e-13 0)
(580 -2.86235e-16 0)
(580 3.67255e-14 0)
(580 3.69767e-14 0)
(580 8.73832e-14 0)
(580 2.71154e-14 0)
(580 2.38025e-14 0)
(580 -1.03907e-13 0)
(580 -1.7222e-13 0)
(580 -2.87946e-13 0)
(580 -3.59756e-13 0)
(580 -5.14839e-13 0)
(580 -6.01385e-13 0)
(580 -8.94513e-13 0)
(580 -8.84392e-13 0)
(580 -9.57257e-13 0)
(580 -8.23528e-13 0)
(580 -7.22605e-13 0)
(580 -5.73105e-13 0)
(580 -3.56106e-13 0)
(580 -2.37291e-13 0)
(580 -1.33185e-13 0)
(580 5.05405e-14 0)
(580 -4.64052e-14 0)
(580 5.38138e-14 0)
(580 3.61314e-13 0)
(580 6.66658e-13 0)
(580 8.94056e-13 0)
(580 1.32076e-12 0)
(580 1.99758e-12 0)
(580 2.0649e-12 0)
(580 2.0236e-12 0)
(580 1.99141e-12 0)
(580 1.97197e-12 0)
(580 2.0464e-12 0)
(580 2.03739e-12 0)
(580 2.01339e-12 0)
(580 1.9287e-12 0)
(580 1.85979e-12 0)
(580 1.72266e-12 0)
(580 1.76532e-12 0)
(580 1.86399e-12 0)
(580 1.9039e-12 0)
(580 1.91373e-12 0)
(580 2.00279e-12 0)
(580 2.11037e-12 0)
(580 2.20814e-12 0)
(580 2.33026e-12 0)
(580 2.42576e-12 0)
(580 2.5498e-12 0)
(580 2.79381e-12 0)
(580 2.88426e-12 0)
(580 3.00968e-12 0)
(580 3.03749e-12 0)
(580 3.29769e-12 0)
(580 3.37676e-12 0)
(580 3.42972e-12 0)
(580 3.48923e-12 0)
(580 3.69022e-12 0)
(580 3.63477e-12 0)
(580 3.62758e-12 0)
(580 3.72114e-12 0)
(580 3.66546e-12 0)
(580 3.71125e-12 0)
(580 3.70258e-12 0)
(580 3.59167e-12 0)
(580 1.52754e-14 0)
(580 9.7301e-14 0)
(580 -1.20318e-13 0)
(580 -2.0999e-13 0)
(580 -3.71493e-13 0)
(580 -4.10615e-13 0)
(580 -5.187e-13 0)
(580 -2.52177e-13 0)
(580 -2.85093e-13 0)
(580 -4.33983e-13 0)
(580 -2.69004e-13 0)
(580 -1.97872e-13 0)
(580 -1.83633e-13 0)
(580 -1.32546e-13 0)
(580 -2.69632e-14 0)
(580 4.21207e-14 0)
(580 5.48753e-14 0)
(580 1.69941e-14 0)