/*--------------------------------*- C++ -*----------------------------------*\
| =========                 |                                                 |
| \\      /  F ield         | OpenFOAM: The Open Source CFD Toolbox           |
|  \\    /   O peration     | Version:  2306                                  |
|   \\  /    A nd           | Website:  www.openfoam.com                      |
|    \\/     M anipulation  |                                                 |
\*---------------------------------------------------------------------------*/
FoamFile
{
    version     2.0;
    format      ascii;
    arch        "LSB;label=32;scalar=64";
    class       volVectorField;
    location    "2e-05";
    object      U;
}
// * * * * * * * * * * * * * * * * * * * * * * * * * * * * * * * * * * * * * //

dimensions      [0 1 -1 0 0 0 0];

internalField   nonuniform List<vector> 
8983
(
(580 2.65487e-14 0)
(580 -1.6959e-14 0)
(580 -6.6594e-14 0)
(580 -1.9595e-14 0)
(580 -5.04302e-14 0)
(580 -6.61833e-14 0)
(580 -2.50985e-13 0)
(580 -2.42018e-13 0)
(580 -1.34599e-13 0)
(580 -2.02809e-13 0)
(580 -2.45123e-13 0)
(580 -2.96107e-13 0)
(580 -3.768e-13 0)
(580 -4.70907e-13 0)
(580 -5.30404e-13 0)
(580 -4.84135e-13 0)
(580 -3.81347e-13 0)
(580 -2.51495e-13 0)
(580 -1.6895e-13 0)
(580 -1.35864e-13 0)
(580 -1.02693e-13 0)
(580 -7.87112e-14 0)
(580 -1.27185e-13 0)
(580 -4.78507e-14 0)
(580 -4.53571e-14 0)
(580 -1.70137e-15 0)
(580 1.58326e-13 0)
(580 1.9937e-13 0)
(580 3.75977e-13 0)
(580 4.4356e-13 0)
(580 3.24987e-13 0)
(580 2.69005e-13 0)
(580 1.11229e-13 0)
(580 -8.16478e-14 0)
(580 -5.05925e-14 0)
(580 -1.12715e-13 0)
(580 -7.70029e-14 0)
(580 -1.02369e-15 0)
(580 3.09394e-14 0)
(580 2.20941e-14 0)
(580 -1.75849e-13 0)
(580 -3.31352e-13 0)
(580 -3.67874e-13 0)
(580 8.59329e-15 0)
(580 -1.19307e-13 0)
(580 -1.77118e-13 0)
(580 -1.3425e-13 0)
(580 -6.57442e-14 0)
(580 1.69979e-14 0)
(580 7.53595e-14 0)
(580 1.18447e-13 0)
(580 -6.47335e-14 0)
(580 -5.76487e-14 0)
(580 -1.9506e-13 0)
(580 -3.22831e-13 0)
(580 -5.07527e-13 0)
(580 -5.27142e-13 0)
(580 -5.39529e-13 0)
(580 -4.55449e-13 0)
(580 -3.73275e-13 0)
(580 -4.00966e-13 0)
(580 -2.84075e-13 0)
(580 -3.73316e-13 0)
(580 -3.39683e-13 0)
(580 -3.26895e-13 0)
(580 -3.3644e-13 0)
(580 -2.14567e-13 0)
(580 -6.92711e-14 0)
(580 8.4896e-14 0)
(580 9.50145e-14 0)
(580 1.57752e-13 0)
(580 1.68687e-13 0)
(580 1.6208e-13 0)
(580 1.83042e-14 0)
(580 -2.38762e-13 0)
(580 -2.77879e-13 0)
(580 -2.16934e-13 0)
(580 -2.56451e-13 0)
(580 -3.13156e-13 0)
(580 -3.46756e-13 0)
(580 -3.32273e-13 0)
(580 -2.44534e-13 0)
(580 -1.98726e-13 0)
(580 -1.05745e-13 0)
(580 -3.79633e-14 0)
(580 -3.70267e-14 0)
(580 -9.51247e-15 0)
(580 2.39595e-14 0)
(580 -4.44866e-14 0)
(580 -2.09633e-13 0)
(580 -3.52906e-13 0)
(580 -4.29147e-13 0)
(580 -4.86045e-13 0)
(580 -6.70162e-13 0)
(580 -6.72366e-13 0)
(580 -7.01587e-13 0)
(580 -8.27781e-13 0)
(580 -8.09716e-13 0)
(580 -7.65405e-13 0)
(580 -6.56415e-13 0)
(580 -4.79154e-13 0)
(580 -3.66855e-13 0)
(580 -2.41397e-13 0)
(580 -2.49505e-13 0)
(580 -2.45292e-13 0)
(580 -1.15073e-13 0)
(580 -1.34546e-13 0)
(580 -6.973e-14 0)
(580 1.10106e-13 0)
(580 3.30149e-13 0)
(580 3.2195e-13 0)
(580 1.98433e-13 0)
(580 5.96194e-13 0)
(580 9.56921e-13 0)
(580 1.02552e-12 0)
(580 1.0032e-12 0)
(580 8.01984e-13 0)
(580 7.66293e-13 0)
(580 6.2778e-13 0)
(580 5.76808e-13 0)
(580 6.27161e-13 0)
(580 7.32483e-13 0)
(580 8.25026e-13 0)
(580 -1.29333e-14 0)
(580 4.02787e-14 0)
(580 5.4284e-14 0)
(580 -9.43159e-14 0)
(580 -2.01571e-13 0)
(580 -2.03649e-13 0)
(580 -1.70529e-13 0)
(580 -1.52597e-13 0)
(580 -3.06665e-13 0)
(580 -3.59088e-13 0)
(580 -3.9727e-13 0)
(580 -4.23687e-13 0)
(580 -5.15814e-13 0)
(580 -4.38761e-13 0)
(580 -3.90156e-13 0)
(580 -2.83564e-13 0)
(580 -1.60391e-13 0)
(580 -1.38918e-13 0)
(580 -1.50927e-13 0)
(580 -1.14472e-13 0)
(580 -1.1589e-13 0)
(580 -5.92042e-14 0)
(580 4.10001e-14 0)
(580 -1.34981e-14 0)
(580 -3.01729e-14 0)
(580 -1.15447e-13 0)
(580 -2.02195e-13 0)
(580 -2.18993e-13 0)
(580 -2.93363e-13 0)
(580 -3.70019e-13 0)
(580 -4.4651e-13 0)
(580 -4.23079e-13 0)
(580 -3.22544e-13 0)
(580 -2.57321e-13 0)
(580 -4.28396e-13 0)
(580 -5.03141e-13 0)
(580 -5.24793e-13 0)
(580 -4.27519e-13 0)
(580 -3.87151e-13 0)
(580 -3.55505e-13 0)
(580 -2.22354e-13 0)
(580 -1.32041e-13 0)
(580 -7.52857e-14 0)
(580 -1.20341e-14 0)
(580 5.60465e-14 0)
(580 5.23626e-14 0)
(580 -7.65931e-14 0)
(580 -8.66897e-14 0)
(580 -3.52862e-14 0)
(580 -8.03271e-14 0)
(580 -2.84027e-13 0)
(580 -4.12714e-13 0)
(580 -4.76079e-13 0)
(580 -4.76365e-13 0)
(580 -5.98591e-13 0)
(580 -4.77703e-13 0)
(580 -3.29784e-13 0)
(580 -5.02461e-14 0)
(580 7.64677e-14 0)
(580 9.42854e-14 0)
(580 6.00375e-14 0)
(580 2.51946e-13 0)
(580 1.63866e-13 0)
(580 2.47645e-13 0)
(580 4.90418e-13 0)
(580 5.18758e-13 0)
(580 5.67811e-13 0)
(580 5.35208e-13 0)
(580 5.43146e-13 0)
(580 8.33478e-13 0)
(580 1.05143e-12 0)
(580 1.16127e-12 0)
(580 1.34593e-12 0)
(580 1.4557e-12 0)
(580 1.22754e-12 0)
(580 1.10085e-12 0)
(580 9.1885e-13 0)
(580 8.06808e-13 0)
(580 8.45105e-13 0)
(580 8.27816e-13 0)
(580 4.39453e-14 0)
(580 8.85457e-14 0)
(580 3.0439e-14 0)
(580 -7.67587e-15 0)
(580 -5.89288e-14 0)
(580 -1.61911e-13 0)
(580 -3.26865e-13 0)
(580 -6.35781e-13 0)
(580 -7.21953e-13 0)
(580 -8.39369e-13 0)
(580 -9.59245e-13 0)
(580 -1.06367e-12 0)
(580 -9.76589e-13 0)
(580 -8.22315e-13 0)
(580 -6.83581e-13 0)
(580 -2.95901e-13 0)
(580 -1.7157e-13 0)
(580 -3.44311e-15 0)
(580 6.40383e-14 0)
(580 2.62388e-13 0)
(580 3.85298e-13 0)
(580 4.28246e-13 0)
(580 2.2496e-13 0)
(580 -1.46507e-13 0)
(580 -6.05155e-13 0)
(580 -8.42179e-13 0)
(580 -6.76918e-13 0)
(580 -5.91054e-13 0)
(580 -4.14503e-13 0)
(580 -1.75374e-13 0)
(580 -5.12472e-14 0)
(580 -2.42557e-14 0)
(580 -2.83153e-13 0)
(580 -7.73298e-13 0)
(580 -1.07413e-12 0)
(580 -1.11208e-12 0)
(580 -1.00253e-12 0)
(580 -6.94129e-13 0)
(580 -6.74184e-13 0)
(580 -6.10869e-13 0)
(580 -5.56093e-13 0)
(580 -4.7497e-13 0)
(580 -4.85227e-13 0)
(580 -6.80348e-13 0)
(580 -7.89993e-13 0)
(580 -7.50057e-13 0)
(580 -5.89141e-13 0)
(580 -1.97823e-13 0)
(580 -3.63325e-14 0)
(580 -1.82011e-13 0)
(580 -1.49275e-13 0)
(580 -3.19144e-13 0)
(580 -3.82982e-13 0)
(580 -6.08782e-13 0)
(580 -6.75615e-13 0)
(580 -6.37331e-13 0)
(580 -3.28209e-13 0)
(580 -9.38285e-16 0)
(580 3.90233e-13 0)
(580 4.56588e-13 0)
(580 5.78685e-13 0)
(580 5.88913e-13 0)
(580 9.09774e-13 0)
(580 1.06273e-12 0)
(580 1.27229e-12 0)
(580 1.20291e-12 0)
(580 9.95009e-13 0)
(580 1.00977e-12 0)
(580 9.60941e-13 0)
(580 7.88858e-13 0)
(580 9.86738e-13 0)
(580 1.37173e-12 0)
(580 1.65031e-12 0)
(580 1.87977e-12 0)
(580 1.64077e-12 0)
(580 1.4294e-12 0)
(580 1.34942e-12 0)
(580 1.11655e-12 0)
(580 1.04646e-12 0)
(580 1.03031e-12 0)
(580 4.12506e-14 0)
(580 -2.00055e-14 0)
(580 -4.39466e-14 0)
(580 -8.32307e-14 0)
(580 -5.06701e-15 0)
(580 -2.11991e-14 0)
(580 -7.64431e-14 0)
(580 -1.97767e-13 0)
(580 -2.53154e-13 0)
(580 -3.73449e-13 0)
(580 -5.62156e-13 0)
(580 -6.62271e-13 0)
(580 -7.93766e-13 0)
(580 -6.26488e-13 0)
(580 -6.46733e-14 0)
(580 6.89923e-14 0)
(580 2.76042e-13 0)
(580 5.56701e-13 0)
(580 5.58683e-13 0)
(580 5.77805e-13 0)
(580 9.31421e-13 0)
(580 1.06632e-12 0)
(580 8.39669e-13 0)
(580 4.67547e-13 0)
(580 -1.12476e-14 0)
(580 -8.11814e-14 0)
(580 5.77795e-14 0)
(580 4.95802e-14 0)
(580 2.64406e-15 0)
(580 1.16664e-13 0)
(580 2.90399e-13 0)
(580 -8.53569e-14 0)
(580 -8.27156e-13 0)
(580 -1.13624e-12 0)
(580 -1.04814e-12 0)
(580 -9.88751e-13 0)
(580 -5.8464e-13 0)
(580 -5.12795e-13 0)
(580 -3.61558e-13 0)
(580 -2.67002e-13 0)
(580 -4.60011e-13 0)
(580 -4.66331e-13 0)
(580 -6.07885e-13 0)
(580 -6.61178e-13 0)
(580 -9.32557e-13 0)
(580 -1.03985e-12 0)
(580 -8.94711e-13 0)
(580 -8.03199e-13 0)
(580 -5.97978e-13 0)
(580 -2.12601e-13 0)
(580 -1.48552e-13 0)
(580 -2.67665e-13 0)
(580 -4.68556e-13 0)
(580 -6.92023e-13 0)
(580 -7.84921e-13 0)
(580 -8.71918e-13 0)
(580 -5.61565e-13 0)
(580 1.08415e-13 0)
(580 7.36991e-13 0)
(580 9.42132e-13 0)
(580 1.07178e-12 0)
(580 1.30176e-12 0)
(580 1.56358e-12 0)
(580 1.58487e-12 0)
(580 1.38115e-12 0)
(580 1.16242e-12 0)
(580 1.0865e-12 0)
(580 1.2245e-12 0)
(580 1.28995e-12 0)
(580 1.25026e-12 0)
(580 1.39088e-12 0)
(580 1.36494e-12 0)
(580 1.17358e-12 0)
(580 9.74868e-13 0)
(580 8.56871e-13 0)
(580 9.13684e-13 0)
(580 1.19087e-12 0)
(580 1.28779e-12 0)
(580 1.2311e-12 0)
(580 1.22579e-12 0)
(580 -5.17872e-14 0)
(580 -6.40994e-14 0)
(580 3.80836e-14 0)
(580 1.48955e-13 0)
(580 7.77415e-14 0)
(580 4.44982e-14 0)
(580 -1.06568e-13 0)
(580 -7.30825e-14 0)
(580 -4.50368e-14 0)
(580 -2.82044e-13 0)
(580 -3.86186e-13 0)
(580 -2.43878e-13 0)
(580 -4.45002e-13 0)
(580 -5.71563e-13 0)
(580 -1.62149e-13 0)
(580 1.54161e-13 0)
(580 3.15953e-13 0)
(580 5.71168e-13 0)
(580 5.8282e-13 0)
(580 6.63431e-13 0)
(580 6.84325e-13 0)
(580 7.91969e-13 0)
(580 1.01008e-12 0)
(580 7.73964e-13 0)
(580 6.17497e-13 0)
(580 4.12182e-13 0)
(580 2.27004e-13 0)
(580 7.19459e-14 0)
(580 -1.09844e-13 0)
(580 -3.71427e-13 0)
(580 -8.41209e-13 0)
(580 -9.04804e-13 0)
(580 -8.93751e-13 0)
(580 -8.86787e-13 0)
(580 -6.6504e-13 0)
(580 -3.57242e-13 0)
(580 -4.38936e-13 0)
(580 -6.50059e-13 0)
(580 -6.2754e-13 0)
(580 -6.45999e-13 0)
(580 -8.13304e-13 0)
(580 -8.56123e-13 0)
(580 -7.32051e-13 0)
(580 -6.65238e-13 0)
(580 -6.35943e-13 0)
(580 -7.65641e-13 0)
(580 -1.05302e-12 0)
(580 -1.16786e-12 0)
(580 -1.15078e-12 0)
(580 -7.76226e-13 0)
(580 -8.80312e-13 0)
(580 -5.21355e-13 0)
(580 -4.4131e-13 0)
(580 -4.57692e-13 0)
(580 -4.04603e-13 0)
(580 -8.33616e-14 0)
(580 3.7469e-13 0)
(580 6.3466e-13 0)
(580 5.9278e-13 0)
(580 6.01657e-13 0)
(580 9.02467e-13 0)
(580 1.23575e-12 0)
(580 1.50703e-12 0)
(580 1.59139e-12 0)
(580 1.59022e-12 0)
(580 1.7328e-12 0)
(580 2.20972e-12 0)
(580 2.07684e-12 0)
(580 1.91485e-12 0)
(580 1.73605e-12 0)
(580 1.13561e-12 0)
(580 4.58465e-13 0)
(580 -3.80424e-13 0)
(580 -5.16486e-13 0)
(580 -3.18536e-13 0)
(580 4.38509e-13 0)
(580 9.65552e-13 0)
(580 1.30987e-12 0)
(580 1.5022e-12 0)
(580 1.62275e-12 0)
(580 -7.71927e-14 0)
(580 -1.59764e-13 0)
(580 -1.33061e-13 0)
(580 -2.62529e-14 0)
(580 -2.2394e-13 0)
(580 -1.86826e-13 0)
(580 -2.59726e-13 0)
(580 -2.12172e-13 0)
(580 -1.09994e-13 0)
(580 -1.26941e-13 0)
(580 -5.06356e-14 0)
(580 8.77773e-14 0)
(580 -7.53102e-14 0)
(580 -7.16954e-14 0)
(580 3.09828e-14 0)
(580 1.10683e-13 0)
(580 1.54892e-13 0)
(580 8.07939e-14 0)
(580 3.75034e-13 0)
(580 7.45168e-13 0)
(580 7.16982e-13 0)
(580 3.13908e-13 0)
(580 5.35002e-14 0)
(580 8.51869e-14 0)
(580 6.64471e-14 0)
(580 -9.2583e-14 0)
(580 -2.54943e-13 0)
(580 -1.93502e-13 0)
(580 -2.10645e-13 0)
(580 -3.06546e-13 0)
(580 -6.07761e-13 0)
(580 -6.07208e-13 0)
(580 -5.37724e-13 0)
(580 -6.60996e-13 0)
(580 -6.62843e-13 0)
(580 -6.9635e-13 0)
(580 -8.53246e-13 0)
(580 -1.08199e-12 0)
(580 -1.35823e-12 0)
(580 -1.45847e-12 0)
(580 -1.31479e-12 0)
(580 -1.26397e-12 0)
(580 -1.12534e-12 0)
(580 -9.98872e-13 0)
(580 -7.74843e-13 0)
(580 -5.36004e-13 0)
(580 -6.44418e-13 0)
(580 -7.77931e-13 0)
(580 -7.91913e-13 0)
(580 -8.61693e-13 0)
(580 -8.3382e-13 0)
(580 -6.83573e-13 0)
(580 -3.4018e-13 0)
(580 1.16568e-13 0)
(580 5.55291e-13 0)
(580 7.11306e-13 0)
(580 7.76491e-13 0)
(580 6.38535e-13 0)
(580 2.22051e-13 0)
(580 2.78037e-13 0)
(580 3.55948e-13 0)
(580 9.31059e-13 0)
(580 1.17624e-12 0)
(580 1.63549e-12 0)
(580 2.13115e-12 0)
(580 2.64166e-12 0)
(580 2.92287e-12 0)
(580 2.44262e-12 0)
(580 1.46249e-12 0)
(580 8.58174e-13 0)
(580 2.39369e-13 0)
(580 -4.16158e-13 0)
(580 -7.73381e-13 0)
(580 -9.40752e-13 0)
(580 -5.6564e-13 0)
(580 6.34323e-13 0)
(580 1.27587e-12 0)
(580 1.84195e-12 0)
(580 1.77327e-12 0)
(580 1.68774e-12 0)
(580 -3.07463e-14 0)
(580 -2.29078e-14 0)
(580 -1.56586e-13 0)
(580 -3.28774e-13 0)
(580 -2.25989e-13 0)
(580 -2.1603e-13 0)
(580 -6.91046e-14 0)
(580 5.10849e-14 0)
(580 1.86826e-13 0)
(580 5.31654e-13 0)
(580 9.07141e-13 0)
(580 8.40967e-13 0)
(580 7.77645e-13 0)
(580 9.52007e-13 0)
(580 5.68981e-13 0)
(580 4.94098e-13 0)
(580 1.21192e-13 0)
(580 -1.57665e-13 0)
(580 9.02762e-15 0)
(580 2.66395e-13 0)
(580 2.25375e-14 0)
(580 -3.93491e-13 0)
(580 -1.03997e-12 0)
(580 -1.07424e-12 0)
(580 -9.63822e-13 0)
(580 -1.01371e-12 0)
(580 -6.02811e-13 0)
(580 -3.85242e-13 0)
(580 -2.89306e-13 0)
(580 -1.61742e-13 0)
(580 -1.29492e-13 0)
(580 -1.15581e-13 0)
(580 -1.46509e-13 0)
(580 -2.68397e-13 0)
(580 -4.74958e-13 0)
(580 -6.74542e-13 0)
(580 -7.35822e-13 0)
(580 -8.14443e-13 0)
(580 -8.81371e-13 0)
(580 -1.12101e-12 0)
(580 -1.30392e-12 0)
(580 -1.2777e-12 0)
(580 -1.16582e-12 0)
(580 -1.04377e-12 0)
(580 -8.5501e-13 0)
(580 -4.84473e-13 0)
(580 -4.93766e-13 0)
(580 -3.59802e-13 0)
(580 -3.26028e-13 0)
(580 -3.88898e-13 0)
(580 4.75898e-14 0)
(580 6.22762e-14 0)
(580 1.40749e-13 0)
(580 5.20682e-13 0)
(580 1.01887e-12 0)
(580 8.6395e-13 0)
(580 7.03418e-13 0)
(580 3.63129e-13 0)
(580 2.50245e-13 0)
(580 2.87153e-13 0)
(580 8.74314e-13 0)
(580 1.58286e-12 0)
(580 1.73807e-12 0)
(580 1.92926e-12 0)
(580 2.41091e-12 0)
(580 2.32675e-12 0)
(580 2.20405e-12 0)
(580 1.16423e-12 0)
(580 8.32045e-13 0)
(580 4.48055e-13 0)
(580 7.5072e-15 0)
(580 1.13997e-13 0)
(580 -1.30651e-14 0)
(580 -2.76811e-13 0)
(580 4.43479e-13 0)
(580 9.53192e-13 0)
(580 1.74342e-12 0)
(580 2.04719e-12 0)
(580 2.02743e-12 0)
(580 1.88937e-12 0)
(580 6.09883e-14 0)
(580 3.84895e-14 0)
(580 -3.17365e-14 0)
(580 -8.07028e-14 0)
(580 -2.57255e-14 0)
(580 2.04468e-14 0)
(580 6.47487e-14 0)
(580 1.70496e-13 0)
(580 3.37463e-13 0)
(580 5.65756e-13 0)
(580 5.22416e-13 0)
(580 8.30796e-13 0)
(580 1.04611e-12 0)
(580 9.16899e-13 0)
(580 6.24278e-13 0)
(580 1.68505e-13 0)
(580 1.03786e-13 0)
(580 1.21475e-13 0)
(580 3.87101e-14 0)
(580 -1.38067e-13 0)
(580 -6.26174e-13 0)
(580 -1.00859e-12 0)
(580 -1.12768e-12 0)
(580 -1.25932e-12 0)
(580 -1.35618e-12 0)
(580 -1.24609e-12 0)
(580 -7.47433e-13 0)
(580 -3.8523e-13 0)
(580 -1.70696e-13 0)
(580 2.87828e-13 0)
(580 4.52442e-13 0)
(580 3.63507e-13 0)
(580 1.60958e-13 0)
(580 1.18543e-13 0)
(580 5.1121e-14 0)
(580 -2.70709e-13 0)
(580 -2.50329e-13 0)
(580 -5.97263e-13 0)
(580 -8.55743e-13 0)
(580 -1.1755e-12 0)
(580 -1.18403e-12 0)
(580 -1.14792e-12 0)
(580 -1.28176e-12 0)
(580 -1.33059e-12 0)
(580 -1.27223e-12 0)
(580 -1.07507e-12 0)
(580 -9.36366e-13 0)
(580 -7.94995e-13 0)
(580 -7.5188e-13 0)
(580 -4.41246e-13 0)
(580 -1.37953e-14 0)
(580 1.0308e-13 0)
(580 7.09349e-13 0)
(580 1.16436e-12 0)
(580 1.16354e-12 0)
(580 1.22219e-12 0)
(580 1.16962e-12 0)
(580 1.17487e-12 0)
(580 9.96304e-13 0)
(580 8.51047e-13 0)
(580 1.04262e-12 0)
(580 1.60953e-12 0)
(580 1.76367e-12 0)
(580 1.82727e-12 0)
(580 1.9033e-12 0)
(580 2.22103e-12 0)
(580 1.58475e-12 0)
(580 1.41705e-12 0)
(580 1.34169e-12 0)
(580 1.02868e-12 0)
(580 6.32093e-13 0)
(580 8.17116e-13 0)
(580 9.41882e-13 0)
(580 7.65359e-13 0)
(580 1.10491e-12 0)
(580 1.25755e-12 0)
(580 1.76291e-12 0)
(580 1.98605e-12 0)
(580 2.14126e-12 0)
(580 2.2655e-12 0)
(580 1.33582e-15 0)
(580 -2.16789e-14 0)
(580 4.05198e-14 0)
(580 8.55393e-14 0)
(580 -3.84141e-14 0)
(580 4.17451e-14 0)
(580 -3.93349e-14 0)
(580 -8.04978e-14 0)
(580 -8.16939e-14 0)
(580 -1.73566e-13 0)
(580 -2.89336e-13 0)
(580 -2.30803e-13 0)
(580 -1.46413e-13 0)
(580 -3.34523e-13 0)
(580 -4.78948e-13 0)
(580 -4.69307e-13 0)
(580 -4.09508e-13 0)
(580 -4.56279e-13 0)
(580 -4.65347e-13 0)
(580 -4.037e-13 0)
(580 -7.5062e-13 0)
(580 -9.49479e-13 0)
(580 -9.18515e-13 0)
(580 -8.42336e-13 0)
(580 -7.56634e-13 0)
(580 -8.86437e-13 0)
(580 -6.97442e-13 0)
(580 -6.91329e-13 0)
(580 -6.83485e-13 0)
(580 -3.44003e-13 0)
(580 -2.34744e-13 0)
(580 -3.0386e-13 0)
(580 -3.83331e-13 0)
(580 -4.31822e-13 0)
(580 -2.62479e-13 0)
(580 -2.35523e-13 0)
(580 -2.01677e-13 0)
(580 -2.20678e-13 0)
(580 -3.9074e-13 0)
(580 -3.60193e-13 0)
(580 -3.42541e-13 0)
(580 -8.04356e-13 0)
(580 -9.66406e-13 0)
(580 -1.16325e-12 0)
(580 -1.28208e-12 0)
(580 -1.37921e-12 0)
(580 -1.4301e-12 0)
(580 -1.32625e-12 0)
(580 -7.70318e-13 0)
(580 -6.22983e-13 0)
(580 -1.37792e-13 0)
(580 1.12762e-13 0)
(580 4.0762e-13 0)
(580 5.08483e-13 0)
(580 5.64517e-13 0)
(580 7.32522e-13 0)
(580 8.8497e-13 0)
(580 1.23288e-12 0)
(580 1.36267e-12 0)
(580 1.33421e-12 0)
(580 1.12979e-12 0)
(580 1.17219e-12 0)
(580 1.23642e-12 0)
(580 1.38234e-12 0)
(580 1.4992e-12 0)
(580 1.70313e-12 0)
(580 1.78266e-12 0)
(580 1.85764e-12 0)
(580 1.93037e-12 0)
(580 2.08638e-12 0)
(580 1.76917e-12 0)
(580 1.51917e-12 0)
(580 2.14294e-12 0)
(580 1.84515e-12 0)
(580 1.59813e-12 0)
(580 1.91364e-12 0)
(580 2.33726e-12 0)
(580 2.5085e-12 0)
(580 2.35937e-12 0)
(580 2.64559e-12 0)
(580 -1.60911e-14 0)
(580 8.51288e-14 0)
(580 1.33561e-13 0)
(580 1.58683e-13 0)
(580 7.87814e-14 0)
(580 1.53101e-14 0)
(580 -6.77288e-14 0)
(580 -1.09341e-13 0)
(580 -2.60278e-13 0)
(580 -5.73751e-13 0)
(580 -6.67007e-13 0)
(580 -6.25407e-13 0)
(580 -6.33115e-13 0)
(580 -5.93751e-13 0)
(580 -5.5488e-13 0)
(580 -6.18222e-13 0)
(580 -8.39857e-13 0)
(580 -1.09629e-12 0)
(580 -1.19545e-12 0)
(580 -1.19634e-12 0)
(580 -7.63622e-13 0)
(580 -8.24233e-13 0)
(580 -6.05454e-13 0)
(580 -3.08342e-13 0)
(580 -1.27507e-13 0)
(580 -2.12673e-13 0)
(580 -5.6161e-13 0)
(580 -6.61421e-13 0)
(580 -5.24943e-13 0)
(580 -3.93307e-13 0)
(580 -2.99443e-13 0)
(580 -3.66615e-13 0)
(580 -3.36386e-13 0)
(580 -3.71126e-13 0)
(580 -2.92925e-13 0)
(580 -1.98019e-13 0)
(580 -2.28939e-13 0)
(580 -2.54018e-13 0)
(580 -8.97876e-14 0)
(580 4.39084e-14 0)
(580 5.19527e-14 0)
(580 -1.25815e-13 0)
(580 -1.59066e-13 0)
(580 -2.00806e-13 0)
(580 -4.25002e-13 0)
(580 -6.24948e-13 0)
(580 -7.37706e-13 0)
(580 -8.03314e-13 0)
(580 -8.12073e-13 0)
(580 -8.23606e-13 0)
(580 -6.06841e-13 0)
(580 -4.88421e-13 0)
(580 -3.75243e-13 0)
(580 -2.72712e-13 0)
(580 -1.09406e-13 0)
(580 -1.61003e-13 0)
(580 -1.35375e-13 0)
(580 4.62977e-13 0)
(580 1.15748e-12 0)
(580 1.46816e-12 0)
(580 1.40261e-12 0)
(580 1.29056e-12 0)
(580 9.90078e-13 0)
(580 9.67884e-13 0)
(580 1.21861e-12 0)
(580 1.43258e-12 0)
(580 1.39134e-12 0)
(580 1.81506e-12 0)
(580 1.92313e-12 0)
(580 2.27365e-12 0)
(580 2.27836e-12 0)
(580 2.43438e-12 0)
(580 2.77491e-12 0)
(580 2.2871e-12 0)
(580 1.66882e-12 0)
(580 2.22281e-12 0)
(580 2.43727e-12 0)
(580 2.73207e-12 0)
(580 2.83561e-12 0)
(580 2.85368e-12 0)
(580 2.64569e-14 0)
(580 6.79549e-14 0)
(580 1.1609e-13 0)
(580 1.47186e-13 0)
(580 2.06678e-13 0)
(580 1.32264e-13 0)
(580 1.58603e-13 0)
(580 8.7833e-14 0)
(580 9.06858e-15 0)
(580 -1.05769e-13 0)
(580 -2.03813e-13 0)
(580 -2.5251e-13 0)
(580 -2.29294e-13 0)
(580 -7.09929e-14 0)
(580 -4.77054e-14 0)
(580 -2.87342e-13 0)
(580 -5.13841e-13 0)
(580 -6.7375e-13 0)
(580 -7.91365e-13 0)
(580 -8.35047e-13 0)
(580 -3.37485e-13 0)
(580 -2.0909e-13 0)
(580 -1.40274e-13 0)
(580 -1.37526e-13 0)
(580 -2.14664e-13 0)
(580 -2.1484e-13 0)
(580 -2.87575e-13 0)
(580 -6.11433e-13 0)
(580 -6.26978e-13 0)
(580 -7.95864e-13 0)
(580 -6.49282e-13 0)
(580 -2.82021e-13 0)
(580 -1.62693e-13 0)
(580 2.4028e-13 0)
(580 5.04384e-13 0)
(580 3.41872e-13 0)
(580 6.3639e-14 0)
(580 -3.47615e-14 0)
(580 -4.47217e-16 0)
(580 2.93566e-15 0)
(580 4.63663e-14 0)
(580 1.02693e-13 0)
(580 9.7814e-14 0)
(580 1.47931e-13 0)
(580 7.09206e-14 0)
(580 -4.92858e-14 0)
(580 -2.88896e-13 0)
(580 -4.07863e-13 0)
(580 -9.11343e-13 0)
(580 -1.16319e-12 0)
(580 -1.07368e-12 0)
(580 -8.87638e-13 0)
(580 -3.62099e-13 0)
(580 -9.19634e-14 0)
(580 1.84999e-13 0)
(580 1.12086e-13 0)
(580 2.76605e-13 0)
(580 6.27457e-13 0)
(580 8.88854e-13 0)
(580 1.11702e-12 0)
(580 1.04568e-12 0)
(580 1.11112e-12 0)
(580 1.0515e-12 0)
(580 6.18332e-13 0)
(580 3.69583e-13 0)
(580 3.62543e-13 0)
(580 1.09863e-12 0)
(580 2.03532e-12 0)
(580 2.5336e-12 0)
(580 3.08849e-12 0)
(580 3.32314e-12 0)
(580 3.67988e-12 0)
(580 3.51716e-12 0)
(580 3.34185e-12 0)
(580 2.9223e-12 0)
(580 2.39517e-12 0)
(580 2.29464e-12 0)
(580 2.30532e-12 0)
(580 2.2432e-12 0)
(580 2.85104e-12 0)
(580 3.5452e-14 0)
(580 3.96128e-14 0)
(580 3.99815e-15 0)
(580 3.21746e-14 0)
(580 7.31851e-14 0)
(580 6.40914e-14 0)
(580 5.9007e-14 0)
(580 7.75349e-14 0)
(580 7.57326e-14 0)
(580 7.02315e-14 0)
(580 -4.02951e-14 0)
(580 -2.49633e-13 0)
(580 -2.69965e-13 0)
(580 -2.65388e-13 0)
(580 -1.2068e-13 0)
(580 1.21385e-13 0)
(580 2.72549e-13 0)
(580 1.13594e-14 0)
(580 -4.79379e-13 0)
(580 -5.27451e-13 0)
(580 -4.96359e-13 0)
(580 -2.25297e-13 0)
(580 -5.05602e-13 0)
(580 -6.27289e-13 0)
(580 -5.18154e-13 0)
(580 -1.53977e-13 0)
(580 -1.63555e-13 0)
(580 -3.36947e-13 0)
(580 -7.92796e-13 0)
(580 -1.01401e-12 0)
(580 -9.55513e-13 0)
(580 -1.76926e-13 0)
(580 1.18514e-13 0)
(580 5.33117e-13 0)
(580 6.85286e-13 0)
(580 5.85818e-13 0)
(580 7.0733e-13 0)
(580 7.61787e-13 0)
(580 5.55893e-13 0)
(580 4.58704e-13 0)
(580 4.66232e-13 0)
(580 5.49465e-13 0)
(580 5.10823e-13 0)
(580 3.45907e-13 0)
(580 1.22529e-13 0)
(580 -7.29151e-15 0)
(580 -3.52029e-14 0)
(580 3.10007e-13 0)
(580 2.5501e-14 0)
(580 -5.88974e-13 0)
(580 -7.35178e-13 0)
(580 -6.6758e-13 0)
(580 -3.66859e-13 0)
(580 -1.24065e-13 0)
(580 3.82439e-13 0)
(580 1.03126e-12 0)
(580 1.50145e-12 0)
(580 1.49432e-12 0)
(580 1.50349e-12 0)
(580 1.3778e-12 0)
(580 1.2209e-12 0)
(580 1.06719e-12 0)
(580 9.08315e-13 0)
(580 7.11028e-13 0)
(580 4.57422e-13 0)
(580 4.80026e-13 0)
(580 7.15177e-13 0)
(580 1.00373e-12 0)
(580 1.75911e-12 0)
(580 2.65005e-12 0)
(580 3.44472e-12 0)
(580 3.62888e-12 0)
(580 3.8025e-12 0)
(580 3.79674e-12 0)
(580 3.27556e-12 0)
(580 2.85992e-12 0)
(580 2.67075e-12 0)
(580 2.65547e-12 0)
(580 2.60059e-12 0)
(580 2.73509e-12 0)
(580 1.40601e-14 0)
(580 -1.06079e-13 0)
(580 -1.56219e-13 0)
(580 -8.99895e-14 0)
(580 -9.91237e-14 0)
(580 -3.77747e-14 0)
(580 -4.17184e-15 0)
(580 -2.69299e-14 0)
(580 -1.1772e-13 0)
(580 -1.92838e-13 0)
(580 -2.64634e-13 0)
(580 -8.67608e-14 0)
(580 -3.48615e-13 0)
(580 -5.15414e-13 0)
(580 -5.8229e-13 0)
(580 -3.18637e-13 0)
(580 -1.56279e-13 0)
(580 -1.58767e-13 0)
(580 -2.06335e-13 0)
(580 -2.67144e-13 0)
(580 -5.17765e-13 0)
(580 -5.84785e-13 0)
(580 -4.64126e-13 0)
(580 -4.35165e-13 0)
(580 -3.09632e-13 0)
(580 1.7438e-13 0)
(580 1.97437e-13 0)
(580 2.36433e-13 0)
(580 2.5441e-13 0)
(580 -1.54415e-13 0)
(580 -3.13608e-13 0)
(580 -5.8624e-14 0)
(580 3.59312e-14 0)
(580 8.00779e-14 0)
(580 -1.35446e-14 0)
(580 1.73479e-13 0)
(580 4.22337e-13 0)
(580 5.66035e-13 0)
(580 5.19081e-13 0)
(580 3.36566e-13 0)
(580 3.82507e-13 0)
(580 5.01908e-13 0)
(580 4.34696e-13 0)
(580 4.35202e-13 0)
(580 4.08446e-13 0)
(580 5.04293e-13 0)
(580 9.12469e-13 0)
(580 1.36771e-12 0)
(580 1.25941e-12 0)
(580 1.06303e-12 0)
(580 8.0526e-13 0)
(580 3.89417e-13 0)
(580 3.41447e-15 0)
(580 -7.81529e-14 0)
(580 1.53468e-13 0)
(580 6.11518e-13 0)
(580 9.41164e-13 0)
(580 1.23522e-12 0)
(580 1.18877e-12 0)
(580 1.08442e-12 0)
(580 1.19274e-12 0)
(580 1.03443e-12 0)
(580 1.09439e-12 0)
(580 1.20184e-12 0)
(580 1.19738e-12 0)
(580 1.11172e-12 0)
(580 1.05708e-12 0)
(580 1.07141e-12 0)
(580 1.24962e-12 0)
(580 1.69864e-12 0)
(580 2.06476e-12 0)
(580 2.6686e-12 0)
(580 3.31997e-12 0)
(580 3.5275e-12 0)
(580 3.58894e-12 0)
(580 3.57451e-12 0)
(580 3.31143e-12 0)
(580 3.29886e-12 0)
(580 3.22098e-12 0)
(580 3.07821e-12 0)
(580 -7.38919e-14 0)
(580 -5.84129e-14 0)
(580 5.0073e-14 0)
(580 3.6444e-14 0)
(580 3.3203e-14 0)
(580 3.25216e-14 0)
(580 3.63273e-14 0)
(580 4.86876e-14 0)
(580 3.47004e-14 0)
(580 1.74245e-14 0)
(580 1.31509e-13 0)
(580 1.58061e-13 0)
(580 -7.99445e-14 0)
(580 -1.37268e-13 0)
(580 -2.13757e-13 0)
(580 -2.71773e-13 0)
(580 -3.57769e-13 0)
(580 -3.2594e-13 0)
(580 -3.73487e-13 0)
(580 -5.66384e-13 0)
(580 -7.24442e-13 0)
(580 -7.63829e-13 0)
(580 -5.83732e-13 0)
(580 -1.03505e-13 0)
(580 2.09005e-13 0)
(580 1.67264e-13 0)
(580 2.40186e-13 0)
(580 4.10945e-13 0)
(580 4.55581e-13 0)
(580 3.2963e-13 0)
(580 5.31217e-14 0)
(580 6.03431e-14 0)
(580 -3.198e-14 0)
(580 -1.47726e-13 0)
(580 -2.53533e-13 0)
(580 -3.03461e-13 0)
(580 -1.95266e-13 0)
(580 5.15141e-14 0)
(580 2.49208e-13 0)
(580 2.33818e-13 0)
(580 1.54932e-13 0)
(580 7.91666e-14 0)
(580 4.17313e-13 0)
(580 6.84397e-13 0)
(580 1.31493e-12 0)
(580 1.69232e-12 0)
(580 1.91432e-12 0)
(580 2.00509e-12 0)
(580 2.07474e-12 0)
(580 1.89886e-12 0)
(580 1.7291e-12 0)
(580 1.45645e-12 0)
(580 1.10192e-12 0)
(580 1.09823e-12 0)
(580 1.02627e-12 0)
(580 9.4118e-13 0)
(580 5.74313e-13 0)
(580 5.78068e-13 0)
(580 7.8699e-13 0)
(580 8.07679e-13 0)
(580 8.00736e-13 0)
(580 6.98438e-13 0)
(580 6.4684e-13 0)
(580 1.03987e-12 0)
(580 1.0757e-12 0)
(580 1.12835e-12 0)
(580 1.31085e-12 0)
(580 1.39714e-12 0)
(580 1.75386e-12 0)
(580 2.2208e-12 0)
(580 2.41636e-12 0)
(580 2.97294e-12 0)
(580 2.96319e-12 0)
(580 3.58244e-12 0)
(580 3.86539e-12 0)
(580 3.97961e-12 0)
(580 3.56228e-12 0)
(580 3.40105e-12 0)
(580 3.14332e-12 0)
(580 2.78281e-12 0)
(580 2.17866e-14 0)
(580 1.60432e-13 0)
(580 3.38123e-13 0)
(580 3.43867e-13 0)
(580 3.16076e-13 0)
(580 2.69023e-13 0)
(580 3.26332e-13 0)
(580 3.69931e-13 0)
(580 4.53388e-13 0)
(580 5.46301e-13 0)
(580 7.08167e-13 0)
(580 5.18985e-13 0)
(580 4.39394e-13 0)
(580 3.29867e-13 0)
(580 2.00263e-13 0)
(580 -9.62373e-15 0)
(580 -1.58952e-13 0)
(580 -3.40307e-13 0)
(580 -5.78797e-13 0)
(580 -8.61988e-13 0)
(580 -8.45949e-13 0)
(580 -8.88061e-13 0)
(580 -6.08406e-13 0)
(580 -3.47556e-13 0)
(580 -2.37536e-13 0)
(580 -1.85606e-13 0)
(580 -2.50787e-13 0)
(580 -2.35892e-13 0)
(580 -1.81389e-13 0)
(580 8.34215e-14 0)
(580 1.79196e-13 0)
(580 3.50437e-13 0)
(580 4.58777e-13 0)
(580 5.65951e-13 0)
(580 5.28842e-13 0)
(580 4.5961e-13 0)
(580 3.27437e-13 0)
(580 2.4838e-13 0)
(580 2.34584e-13 0)
(580 3.87945e-13 0)
(580 2.25793e-13 0)
(580 2.84459e-13 0)
(580 3.71844e-13 0)
(580 7.19437e-13 0)
(580 7.53781e-13 0)
(580 9.42545e-13 0)
(580 1.22003e-12 0)
(580 1.44819e-12 0)
(580 1.78387e-12 0)
(580 1.84662e-12 0)
(580 1.85864e-12 0)
(580 2.3617e-12 0)
(580 2.2674e-12 0)
(580 1.7717e-12 0)
(580 1.24059e-12 0)
(580 5.64916e-13 0)
(580 3.60425e-13 0)
(580 2.36697e-13 0)
(580 3.4303e-13 0)
(580 5.96068e-13 0)
(580 6.95646e-13 0)
(580 7.57629e-13 0)
(580 7.37399e-13 0)
(580 6.38028e-13 0)
(580 7.31624e-13 0)
(580 8.70816e-13 0)
(580 1.13438e-12 0)
(580 1.42494e-12 0)
(580 1.70542e-12 0)
(580 2.2006e-12 0)
(580 2.38621e-12 0)
(580 2.35731e-12 0)
(580 2.41208e-12 0)
(580 2.73035e-12 0)
(580 3.20292e-12 0)
(580 3.15832e-12 0)
(580 2.94988e-12 0)
(580 2.72454e-12 0)
(580 2.07682e-12 0)
(580 1.97866e-12 0)
(580 2.18135e-14 0)
(580 1.94187e-13 0)
(580 2.04476e-13 0)
(580 2.25759e-13 0)
(580 2.4467e-13 0)
(580 4.27637e-13 0)
(580 5.55568e-13 0)
(580 4.41145e-13 0)
(580 5.90573e-13 0)
(580 5.68076e-13 0)
(580 5.02404e-13 0)
(580 6.69608e-13 0)
(580 5.8053e-13 0)
(580 4.47626e-13 0)
(580 3.07362e-13 0)
(580 1.69233e-13 0)
(580 1.93655e-13 0)
(580 1.12831e-13 0)
(580 -6.54331e-14 0)
(580 -4.08808e-14 0)
(580 4.89006e-14 0)
(580 1.3362e-13 0)
(580 2.10624e-13 0)
(580 2.7064e-13 0)
(580 1.72845e-13 0)
(580 3.32212e-14 0)
(580 4.90764e-14 0)
(580 -1.11117e-13 0)
(580 -2.99983e-13 0)
(580 -1.21988e-13 0)
(580 -3.0817e-13 0)
(580 -1.36589e-13 0)
(580 1.11468e-13 0)
(580 1.27714e-13 0)
(580 4.65094e-14 0)
(580 4.95594e-15 0)
(580 -6.20558e-14 0)
(580 -1.39115e-13 0)
(580 -3.49049e-13 0)
(580 -2.0109e-13 0)
(580 -6.79522e-14 0)
(580 8.68364e-14 0)
(580 2.12994e-13 0)
(580 2.96723e-13 0)
(580 4.31046e-13 0)
(580 5.82774e-13 0)
(580 8.51421e-13 0)
(580 9.98391e-13 0)
(580 1.26345e-12 0)
(580 1.76188e-12 0)
(580 2.02857e-12 0)
(580 1.96358e-12 0)
(580 1.73346e-12 0)
(580 1.59576e-12 0)
(580 1.25153e-12 0)
(580 1.03803e-12 0)
(580 1.08449e-12 0)
(580 9.1154e-13 0)
(580 7.21671e-13 0)
(580 5.42033e-13 0)
(580 7.19763e-13 0)
(580 6.71975e-13 0)
(580 8.76282e-13 0)
(580 9.82854e-13 0)
(580 1.05041e-12 0)
(580 1.36491e-12 0)
(580 1.6194e-12 0)
(580 1.77086e-12 0)
(580 1.85861e-12 0)
(580 1.94796e-12 0)
(580 1.98107e-12 0)
(580 2.08097e-12 0)
(580 2.18675e-12 0)
(580 2.36241e-12 0)
(580 2.73479e-12 0)
(580 2.8998e-12 0)
(580 2.68698e-12 0)
(580 2.60304e-12 0)
(580 2.38375e-12 0)
(580 2.13492e-12 0)
(580 -1.57711e-15 0)
(580 2.00246e-14 0)
(580 -6.64676e-14 0)
(580 -5.03321e-14 0)
(580 1.75676e-13 0)
(580 2.68422e-13 0)
(580 1.74089e-13 0)
(580 1.49553e-13 0)
(580 2.95918e-13 0)
(580 3.12235e-13 0)
(580 2.88871e-13 0)
(580 2.39986e-13 0)
(580 2.55113e-13 0)
(580 1.77755e-13 0)
(580 9.73971e-14 0)
(580 7.94476e-14 0)
(580 1.05184e-13 0)
(580 1.2796e-13 0)
(580 7.50354e-14 0)
(580 6.62972e-14 0)
(580 4.4564e-14 0)
(580 3.8355e-14 0)
(580 -3.60202e-16 0)
(580 -6.81148e-14 0)
(580 -1.74353e-13 0)
(580 -1.97983e-13 0)
(580 -3.03777e-13 0)
(580 -3.87091e-13 0)
(580 -4.33315e-13 0)
(580 -6.3201e-13 0)
(580 -8.09503e-13 0)
(580 -9.28188e-13 0)
(580 -9.8307e-13 0)
(580 -9.97077e-13 0)
(580 -9.80026e-13 0)
(580 -9.24125e-13 0)
(580 -8.42546e-13 0)
(580 -7.33869e-13 0)
(580 -5.67597e-13 0)
(580 -3.15758e-13 0)
(580 5.60872e-15 0)
(580 2.47437e-13 0)
(580 4.06022e-13 0)
(580 5.28848e-13 0)
(580 9.42526e-13 0)
(580 1.33174e-12 0)
(580 1.34646e-12 0)
(580 1.33112e-12 0)
(580 1.36847e-12 0)
(580 1.6063e-12 0)
(580 1.70446e-12 0)
(580 1.60875e-12 0)
(580 1.59977e-12 0)
(580 1.48674e-12 0)
(580 1.34707e-12 0)
(580 1.28591e-12 0)
(580 9.13772e-13 0)
(580 8.06255e-13 0)
(580 6.70297e-13 0)
(580 5.19694e-13 0)
(580 3.33413e-13 0)
(580 2.10055e-13 0)
(580 2.7611e-13 0)
(580 7.0088e-13 0)
(580 1.10647e-12 0)
(580 1.28201e-12 0)
(580 1.718e-12 0)
(580 1.87552e-12 0)
(580 2.20445e-12 0)
(580 2.15148e-12 0)
(580 2.33047e-12 0)
(580 2.54273e-12 0)
(580 2.71901e-12 0)
(580 2.7766e-12 0)
(580 2.76015e-12 0)
(580 2.7268e-12 0)
(580 2.91893e-12 0)
(580 3.10318e-12 0)
(580 3.04706e-12 0)
(580 2.78197e-12 0)
(580 2.31206e-14 0)
(580 -3.23976e-14 0)
(580 -1.04305e-13 0)
(580 -5.33486e-14 0)
(580 1.77123e-14 0)
(580 -5.08024e-15 0)
(580 -5.20488e-14 0)
(580 1.5884e-14 0)
(580 1.60626e-13 0)
(580 3.75468e-13 0)
(580 3.78038e-13 0)
(580 3.0479e-13 0)
(580 2.94338e-13 0)
(580 2.40232e-13 0)
(580 1.85515e-13 0)
(580 1.14991e-13 0)
(580 -1.74153e-13 0)
(580 -2.40726e-13 0)
(580 -2.1413e-13 0)
(580 -3.81532e-13 0)
(580 -4.2511e-13 0)
(580 -4.54369e-13 0)
(580 -4.54682e-13 0)
(580 -7.75627e-13 0)
(580 -8.15409e-13 0)
(580 -8.80164e-13 0)