/*--------------------------------*- C++ -*----------------------------------*\
| =========                 |                                                 |
| \\      /  F ield         | OpenFOAM: The Open Source CFD Toolbox           |
|  \\    /   O peration     | Version:  2306                                  |
|   \\  /    A nd           | Website:  www.openfoam.com                      |
|    \\/     M anipulation  |                                                 |
\*---------------------------------------------------------------------------*/
FoamFile
{
    version     2.0;
    format      ascii;
    arch        "LSB;label=32;scalar=64";
    class       volScalarField;
    location    "1e-05";
    object      p;
}
// * * * * * * * * * * * * * * * * * * * * * * * * * * * * * * * * * * * * * //

dimensions      [1 -1 -2 0 0 0 0];

internalField   nonuniform List<scalar> 
9032
(
102176
100392
98650.1
96658
94289.2
91825.5
89574.5
87560.3
86413.8
85273.3
83556.8
82085.1
81107.7
80437.6
79740
78910.5
78025.4
77167.9
76535.5
76123.7
75776.6
75499.6
75273.7
74963.7
74483
73825.8
72854.6
71558.1
70461.2
69895.4
69438.5
69095.9
68870.2
68727.4
68653.4
68732.5
69162.4
69755.7
69447.2
68841.3
69095
68136
66645
65377.2
64494.2
64085.1
64057.8
63578.5
63055
62894.9
62581.6
61687.8
61900.1
62706.8
63274
60265.2
38246.2
9447.86
5029.72
5000
5000
5000
5000
5000
5000
5000
5000
5000
99220.8
97128.1
95053.8
92919.8
90889.3
89182.9
87891.9
86688.4
85558.2
84488.2
82997.8
81675.8
80691.6
79996
79245.9
78367.8
77454.7
76691.6
76164.3
75770.3
75417
75099.9
74778.2
74351.7
73811
73111.3
72096.6
70821.3
69809.2
69251
68770.7
68407.1
68279.6
68378.4
68562.5
68706
68671.2
68685.7
68604.9
68275.1
68006.2
66828.9
65522.8
64606.6
64029.8
63827
63748.2
63467.8
63043.1
62590
62205.4
62010
62025
61869.6
60211.7
51381.9
25661.5
6374.28
5003.66
5000
5000
5000
5000
5000
5000
5000
5000
5000
99954.5
98024.2
96182.4
94225.7
92101.7
90017.8
88214.7
86479.3
84986.8
83949.2
82600.6
81357.5
80346
79651.5
78913.7
78082.1
77227.1
76568.6
76165.5
75842
75507.2
75167.6
74803.6
74344.7
73765.4
72975.9
71891.1
70733.4
69942.9
69435.1
68962.8
68574.6
68317.4
68282.1
68443.4
68559.3
68544.4
68534.2
68410.8
68110.6
68041.7
66934.6
65653.1
64735.4
64103.7
63675.8
63395.1
63164.1
62888.4
62435.4
61815.1
61869.3
61755.3
61084.9
59297.2
48198.1
18230.5
5347.44
5000.26
5000
5000
5000
5000
5000
5000
5000
5000
5000
98752.2
96748.8
94928
93102.5
91122.4
89045
87130.6
85509.8
84187.6
83289.8
82168.9
81033.6
80026.7
79243.3
78475.8
77673.6
76893.9
76300.5
75992.9
75748.6
75370.1
74991.2
74592.5
74123.1
73490.9
72487.6
71140.1
70212.4
69681.5
69193
68765.4
68389
68079
67987
68155.1
68321.5
68328.6
68229.4
68051.5
67769
67648.8
66541.9
65233
64362.4
63955.1
63546.4
63075.9
62845
62647.1
62202.8
61826.5
61824.3
61609.1
60776.3
57186.6
39108.6
10541.8
5047.84
5000.01
5000
5000
5000
5000
5000
5000
5000
5000
5000
97797.3
95761.2
93894.9
92054
90195.1
88371.2
86662.2
85287.2
83708.1
82503
81652.4
80590
79655.2
78845.3
78084.9
77291.8
76588.5
76068.2
75804.1
75622.1
75238.7
74812.6
74317.3
73704.5
72870.8
71692.6
70471.8
69804
69336.2
68944.1
68606.1
68264.1
67921.9
67672
67700.3
68056.6
68241.6
67999.3
67649.7
67321.8
67008.3
65911.9
64777.2
64330.3
64129.5
63446.8
62745.7
62466.2
62234.4
62170.4
62018.8
61690.3
61332.1
60668.6
54938.8
29022.8
6725
5004.63
5000
5000
5000
5000
5000
5000
5000
5000
5000
5000
96706.1
94633.4
92781.9
91047.9
89335.3
87642.6
86040.2
84683.6
83251.8
81735.4
81089.8
80176.9
79262.2
78413.5
77645
76911.1
76299.3
75815.8
75543.9
75426.6
75078.1
74624.4
74075.7
73320.1
72192.8
70765
69796.4
69303.1
68906.5
68593.8
68336.5
68120.2
67882.7
67526.3
67332
67809.8
68129.6
67584.8
67257.9
67049.2
66360.8
65266.7
64295
64151.7
64071.3
63054.2
62253.5
62208.6
62050.6
61918.5
61772.7
61583.6
61484
60105
48561.4
17997.5
5327.86
5000.23
5000
5000
5000
5000
5000
5000
5000
5000
5000
5000
95544.1
93468
91629.9
89976.7
88366
86805.2
85359.2
84073.3
82744.4
81121.2
80551.8
79785.7
78848.7
77959.3
77178.9
76515.1
75961.3
75509.6
75235
75137.2
74799.5
74338.8
73755.2
72918.5
71687.6
70258.8
69368.5
68870.3
68446.5
68113.2
67924.6
67886.3
67828.6
67602.5
67353.1
67468.7
67537.6
67037.5
66950.4
66715.6
65762.3
64733.7
63883.8
63961.8
63972.8
62682.2
62026.5
61997.6
61903.6
61814.4
61729.7
61675
61542.6
58635
39628.3
10497
5045.83
5000.01
5000
5000
5000
5000
5000
5000
5000
5000
5000
5000
94218
92247.8
90419.4
88894
87431.7
85955.3
84580.2
83381.6
82170.2
80514.6
79919.5
79459
78482.3
77518.1
76745.9
76131.5
75604.5
75167.9
74917.1
74758.4
74310.5
73793.2
73153.7
72250.4
71012.4
69850.8
69187.8
68704.8
68216.5
67765.1
67511.5
67499
67557.6
67638.4
67524.3
67102.4
66799.3
66575.7
66416.8
66134.1
65321.5
64433.9
63784.4
63875.8
63572.1
61940.1
61474.3
61866.3
61836.5
61784.6
61737
61820.3
61221.2
54713.1
28009.1
6521.74
5003.65
5000
5000
5000
5000
5000
5000
5000
5000
5000
5000
5000
92830.6
90969.4
89223.1
87741.9
86430.2
85054.4
83730.1
82587.9
81467.3
80111.4
79491.5
79111.6
78012.9
76979.9
76282.2
75720.9
75233.2
74834
74654.5
74370.8
73729.5
73039.7
72206.1
71163.7
70058.5
69288.4
68862.4
68491.3
68074.3
67643
67302.8
67077.5
67073.1
67380.3
67496.5
66900.1
66331
66113.5
65772.9
65488.8
64997.6
64305.4
63783.2
63465.1
63004.9
61951.1
61314.7
61996
62108.5
61969.8
61870.6
61800.5
60321.1
48236
17357.7
5283.73
5000.18
5000
5000
5000
5000
5000
5000
5000
5000
5000
5000
5000
91108.7
89455
87885.5
86473.2
85313.5
84089.8
82866.6
81801.3
80786.4
79780.8
79142.1
78677.3
77377.3
76334.1
75752
75256.5
74815.5
74511.3
74416.8
74016.8
73287.8
72413.8
71278.9
69962.7
69039.9
68603.4
68302.7
68090.4
67890.6
67632.9
67276.7
66843.7
66612.3
66732.5
66944.9
66670.9
66151.4
65777
65319.6
64853
64621.9
64232.1
63696
63197.3
62802.1
61748.2
60513.3
61148.1
62301.8
62199.2
61985.1
61589.1
58086.8
37886
9619
5031.77
5000
5000
5000
5000
5000
5000
5000
5000
5000
5000
5000
5000
89269.9
87843.4
86505.9
85229.3
84113.7
83056
82017.7
81052.9
80120.8
79420.1
78857.6
78056.6
76590.9
75663.5
75173.5
74724.2
74345.3
74153.5
74023.7
73560.6
72819.9
71857.2
70551.8
69215.5
68441.5
68009.6
67686.6
67511.6
67477.1
67432.2
67173.1
66812.7
66455.2
66155.5
66060.5
66125.3
65932.2
65530.4
65082.8
64560.9
64273.2
64031.1
63535.8
62950.9
62299.8
61235.5
60611
61863.4
63034.7
62606.7
62163
61269.5
53938.6
25685.2
6089.62
5001.94
5000
5000
5000
5000
5000
5000
5000
5000
5000
5000
5000
5000
87333
86211.8
85148
84058
82991.3
82109.4
81220.8
80330.5
79481.3
78966.3
78467.4
77102.6
75732.6
75048.5
74589.5
74156.1
73823.9
73669.2
73389.4
72752
71916.7
70898.4
69745.6
68839.2
68244.9
67730.7
67302.3
66986.1
66876.4
66895.8
66827
66724.5
66444.6
65924.2
65480.3
65320.6
65408.1
65253.1
64847.7
64427.2
64006.8
63688.9
63228
62473.7
61854.5
61205.1
60705.2
61888.2
63377.8
63138.9
62294.9
60088.8
45729.6
14528.1
5149.6
5000.06
5000
5000
5000
5000
5000
5000
5000
5000
5000
5000
5000
5000
84945.6
84232.6
83446.5
82646.8
81806.8
81138.8
80452.3
79632.1
78838.2
78307.8
77762.7
76042.8
74959.6
74543.9
74085.6
73674.2
73348.2
73081.4
72548
71679.9
70619.6
69485.4
68677.6
68313.1
68010.2
67644.6
67212.7
66776.7
66425.8
66239.4
66230.2
66295.8
66195.6
65813.6
65273
64855
64686.9
64727.2
64536.4
64166.2
63713.8
63202.4
62693
62048.9
61636.7
61316.9
61241
62854.2
64539.5
63751.3
62094.9
57190.7
33565.6
7802.89
5011.33
5000
5000
5000
5000
5000
5000
5000
5000
5000
5000
5000
5000
5000
82400.1
82092.9
81520.3
80955.7
80412.5
79911.7
79497.1
78828.9
78147
77562.3
76925.5
74769.2
74135.9
74010.1
73617.8
73267.7
72949.5
72482.3
71683.6
70610.8
69352.5
68242.2
67681.8
67436.9
67318.8
67209.3
67006.2
66686.1
66272.8
65870.3
65616.6
65532.6
65552.4
65490.8
65160.3
64668.4
64280.5
64115
64010.2
63739.3
63339.9
62910.3
62465.1
62071
61856.6
61587.6
61762.2
63752.7
65937.4
64635.3
61288.4
50441.5
19807.1
5432.13
5000.36
5000
5000
5000
5000
5000
5000
5000
5000
5000
5000
5000
5000
5000
78680.6
79626.2
79272.8
78930.4
78641.8
78339.4
78078.5
77700.4
77209.1
76570.8
75843
74023.5
73269.3
73453.1
73147.6
72787.9
72345.9
71650.7
70668
69517.7
68401
67527
66952
66569.7
66418.4
66458.8
66510.7
66409.1
66131.9
65726.9
65279.8
64927.3
64733.9
64742.7
64769.4
64509.2
64101.5
63739.6
63482.3
63313.3
63141.8
62941.8
62607.7
62202.4
62276.7
62699.9
63329.9
65502.2
67636
65621.1
59468.7
38563.7
9703.8
5031.5
5000
5000
5000
5000
5000
5000
5000
5000
5000
5000
5000
5000
5000
5000
70694.9
76584.9
77009.4
76806.4
76630.3
76453.5
76278.1
76151.6
75871.6
75324
74680.3
73181.9
72233
72705.3
72421.6
71985.8
71398.1
70512.6
69401.3
68344.3
67612.7
67129.4
66682.5
66216.1
65862.2
65739.2
65771.2
65818
65764.8
65517.2
65123.9
64624.6
64194.6
63951.6
63973.8
64110
63922.9
63524.2
63209.1
63156.1
63197.4
63165.9
63116.6
63126.8
63459.6
64099.6
65361.2
67743.8
69173.5
65906.5
53328.2
22338.1
5657.51
5000.75
5000
5000
5000
5000
5000
5000
5000
5000
5000
5000
5000
5000
5000
5000
56251.5
69803.6
74615.9
74776.8
74692.9
74524.1
74386.6
74380.5
74275.5
73860
73266.9
72217.1
71667.9
71940
71515.9
70878.7
70035.6
68976.4
67938.1
67186.7
66704.6
66439.3
66341.9
66239.8
65891.5
65514.7
65219.2
65061.8
65046.4
65044.1
64862.7
64520.3
64015.1
63578.3
63342.6
63370.1
63533.5
63432.5
63308.1
63308
63415.5
63746.4
64160
64623.5
65130.6
65687.8
66595.8
68726.3
68621.9
63071.4
39801.6
10235.6
5042.98
5000.01
5000
5000
5000
5000
5000
5000
5000
5000
5000
5000
5000
5000
5000
5000
45296.9
56439.1
69150.2
72671
72996.9
72935.5
72754
72742.1
72711.1
72437.9
71994.4
71205.2
71067
71269.7
70484.3
69557.7
68535.6
67521.9
66715.4
66129.5
65711.7
65505.3
65590.2
65853.1
65904.2
65610.9
65194.5
64683.6
64372.2
64252.7
64274.5
64205.3
63971.7
63539.7
63087.4
62879.4
63014.9
63413.3
63560.7
63591
63785.8
64168.3
64568.7
64829.8
65078.8
65348.6
65326.6
64358.2
60699
50648.3
26480.6
6881.56
5007.89
5000
5000
5000
5000
5000
5000
5000
5000
5000
5000
5000
5000
5000
5000
5000
42430.2
45652.8
56422.5
68211.7
70931.9
71520.1
71483.2
71377.9
71353.9
71185.8
70881.8
70435.7
70329.7
70383.8
69223.9
68035.9
67063.8
66351.5
65823
65371.1
64992.6
64726.9
64770.7
65128.6
65427.5
65344
65096.5
64723.1
64109
63670.4
63483.8
63509
63613.3
63499.7
63190.8
62803.7
62745.5
63112.1
63544.9
63609.4
63679.2
63888.9
64219.8
64194.1
63648.2
61984.6
58461.8
53128.7
47437.6
40287.3
23794.7
7054.91
5011.89
5000
5000
5000
5000
5000
5000
5000
5000
5000
5000
5000
5000
5000
5000
5000
42141.9
42499.1
45707.4
56103.2
66842.8
69379.6
70161.8
70122.2
70080.9
70011.6
69893.2
69782.7
69496.9
68976.3
67496
66419.4
65822.6
65408.6
65090.9
64856.8
64663
64459.7
64292.2
64362.5
64519.3
64619.7
64563.2
64366
64049.4
63484.3
62971
62758.7
62834.8
63172.4
63248.2
63013.6
62673.8
62695.7
63223.8
63480.2
63244.5
62541.7
61402
59427.2
56082.1
51397.2
46620.2
43542.3
41872.9
38676.2
24848.5
7517.93
5017.15
5000
5000
5000
5000
5000
5000
5000
5000
5000
5000
5000
5000
5000
5000
5000
42111
42126.1
42497.8
45466.1
55353
64877.4
67650.7
68601.8
68756.9
68837.6
68803.7
68877.3
68438.2
67002.5
65752.2
65152.8
64805.5
64516.6
64344.6
64301.3
64358.4
64482.8
64490.8
64099.7
63750.9
63554.6
63513.9
63588.9
63531.5
63279.2
62784.2
62276.1
62096.8
62286.5
62851.3
63067.4
62821.6
62177.6
61813.4
61432.1
60279
57855.7
54106.5
49656.4
45673.4
43192.1
42243.2
41956.3
41554.1
38920.4
25292.6
7638.88
5018.45
5000
5000
5000
5000
5000
5000
5000
5000
5000
5000
5000
5000
5000
5000
5000
42136.3
42128.3
42106.8
42442
45012.8
53890.1
62452.5
65815.9
67125.4
67423.2
67468.6
67581.3
66918.9
64774.8
64371.1
64089.5
63817.5
63611.1
63540.7
63587.7
63736
63997.2
64267.3
64021.5
63511
62906.4
62543.9
62394.5
62532.7
62738
62688.7
62418.7
61724.9
61285.1
61231.5
61471.6
61200.1
60155.9
58082.4
54854.3
51089.4
47463.6
44625.3
42984.3
42316.7
42110.1
42040.5
41965.6
41648.2
39059.6
25365.3
7649.08
5018.52
5000
5000
5000
5000
5000
5000
5000
5000
5000
5000
5000
5000
5000
5000
5000
42144.4
42138.9
42148.1
42026.3
42324
44419.3
51981.7
59839.3
63881.7
65502.9
65802.8
65916.1
65201
63032.9
63247.1
63212.2
63040.9
62885.3
62792.8
62771.7
62846.8
63076.6
63388.1
63478.1
63261
62945.5
62281.5
61568.7
61309.6
61318.9
61537.5
61479.8
61119
60223.6
58506.6
56508
54265.9
51491.5
48309.1
45466.1
43593.5
42701.9
42393.4
42283
42204.6
42127.8
42072.2
42010.3
41694
39082.5
25367.3
7647.41
5018.5
5000
5000
5000
5000
5000
5000
5000
5000
5000
5000
5000
5000
5000
5000
5000
42143.9
42145.8
42155.4
42126.2
42137
42065.3
43665.3
49673.1
57028.7
61863.5
63550.4
63859.3
63494.7
61694.9
62269.7
62512.5
62486.3
62467.5
62358.6
62167.7
62007.7
61952.5
61962
62050.7
62117.1
62006.6
61790.9
61437.5
60443.4
59266
58344.6
57342.6
55904.7
53739.1
51010.7
48136
45596.9
43806.6
42856.1
42483.3
42377.2
42347
42333.2
42294.1
42223.6
42146.6
42090.3
42023
41699.6
39083.2
25365.4
7646.63
5018.49
5000
5000
5000
5000
5000
5000
5000
5000
5000
5000
5000
5000
5000
5000
5000
42143.5
42147.7
42153.1
42156.9
42155.9
42172.6
42116.3
42798.5
47448.1
54281.4
59121.9
60800
61364.9
60529.2
61057.1
61520.8
61539.1
61580.4
61623.2
61632.6
61568.1
61286.1
60663.4
60010.8
59470.9
58999.9
58467.3
57572.7
56194.6
54400.4
52182
49661.3
47162.2
45057.4
43555.7
42682.1
42325.6
42259.3
42303
42338.6
42349.3
42353.2
42344.1
42304.4
42232.2
42151.7
42092.6
42023.6
41699.4
39082.7
25364.9
7646.52
5018.48
5000
5000
5000
5000
5000
5000
5000
5000
5000
5000
5000
5000
5000
5000
5000
42143.4
42147.8
42152.2
42156.2
42162.2
42172.6
42167.6
42162.3
42530
45292.5
50389.7
54786.5
57253.9
58078.2
58614.6
59161.1
59104.6
58980
58769.1
58462.5
58109.1
57708.1
56930.1
55881.1
54570.3
52946
51092.4
49214.3
47425.3
45695.4
44177.6
43082.2
42452.8
42177.6
42091.8
42075.9
42112.7
42202.9
42299.5
42341.1
42352.5
42357.3
42347.9
42306.5
42233.1
42151.9
42092.5
42023.5
41699.2
39082.6
25364.8
7646.52
5018.48
5000
5000
5000
5000
5000
5000
5000
5000
5000
5000
5000
5000
5000
5000
5000
42143.4
42147.8
42152.2
42156
42162.4
42173.2
42185.9
42194.1
42207.9
42373.1
43587.6
46369.1
49506.5
51601.2
52319.2
52658.5
52533.7
52217.6
51672.5
50907.3
50015.2
49114.8
48121.4
46989
45850.2
44785.5
43877.4
43181.9
42681.3
42312.4
42090.5
42020.1
42009.8
42012.3
42031.6
42064.4
42115
42205.5
42301
42342.6
42353.9
42358.1
42348.3
42306.6
42233.1
42151.9
42092.5
42023.4
41699.2
39082.6
25364.8
7646.52
5018.48
5000
5000
5000
5000
5000
5000
5000
5000
5000
5000
5000
5000
5000
5000
5000
42143.4
42147.8
42152.2
42156
42162.3
42173.1
42187
42201.5
42218.2
42249.7
42330.6
42688.7
43572.9
44463.3
44626.1
44666.5
44570.7
44385.8
44095.6
43765.6
43431.4
43179.2
42950
42715
42533.6
42400.1
42298.6
42217.4
42152
42077.3
42011
41999.4
42001.7
42010.7
42031.8
42065
42115.7
42206.2
42301.5
42342.9
42354.1
42358.2
42348.3
42306.5
42233.1
42151.8
42092.5
42023.4
41699.2
39082.6
25364.8
7646.52
5018.48
5000
5000
5000
5000
5000
5000
5000
5000
5000
5000
5000
5000
5000
5000
5000
42143.4
42147.8
42152.2
42156
42162.3
42173.1
42186.9
42201.8
42220.6
42252.1
42299.4
42360.8
42494.6
42535.7
42244.1
42220.3
42238.2
42224.3
42210.1
42204.1
42208
42254
42339.4
42317.6
42301.9
42280.1
42243.1
42196.2
42145.3
42075.8
42010.8
41999.4
42001.7
42010.7
42031.9
42065.1
42115.8
42206.3
42301.5
42342.9
42354.1
42358.2
42348.2
42306.5
42233.1
42151.8
42092.5
42023.4
41699.2
39082.6
25364.8
7646.52
5018.48
5000
5000
5000
5000
5000
5000
5000
5000
5000
5000
5000
5000
5000
5000
5000
42143.4
42147.8
42152.2
42156
42162.3
42173.1
42186.9
42201.8
42220.7
42252.7
42299.6
42356.8
42461.5
42446.4
42117.5
42093.8
42123.3
42124.2
42132.9
42149.6
42173.1
42233.3
42329.7
42312.9
42299.6
42279.2
42242.8
42196.2
42145.3
42075.8
42010.8
41999.4
42001.7
42010.8
42031.9
42065.2
42115.8
42206.3
42301.5
42342.9
42354.1
42358.2
42348.2
42306.5
42233.1
42151.8
42092.5
42023.4
41699.2
39082.6
25364.8
7646.52
5018.48
5000
5000
5000
5000
5000
5000
5000
5000
5000
5000
5000
5000
5000
5000
5000
42143.4
42147.8
42152.2
42156
42162.3
42173.1
42186.9
42201.8
42220.7
42252.7
42299.7
42356.8
42461.4
42445.8
42116.6
42093
42122.6
42123.6
42132.5
42149.4
42173
42233.2
42329.7
42312.9
42299.6
42279.2
42242.8
42196.2
42145.3
42075.8
42010.8
41999.5
42001.8
42010.8
42031.9
42065.2
42115.8
42206.3
42301.5
42342.9
42354.1
42358.2
42348.2
42306.5
42233.1
42151.8
42092.5
42023.4
41699.2
39082.6
25364.8
7646.52
5018.48
5000
5000
5000
5000
5000
5000
5000
5000
5000
5000
5000
5000
5000
5000
5000
42143.4
42147.8
42152.2
42156
42162.3
42173.1
42186.9
42201.8
42220.7
42252.7
42299.7
42356.8
42461.4
42445.8
42116.6
42093
42122.6
42123.6
42132.5
42149.4
42173
42233.2
42329.7
42312.9
42299.6
42279.2
42242.8
42196.2
42145.3
42075.8
42010.8
41999.5
42001.8
42010.8
42031.9
42065.2
42115.8
42206.3
42301.5
42342.9
42354.1
42358.2
42348.2
42306.5
42233.1
42151.8
42092.5
42023.4
41699.2
39082.6
25364.8
7646.52
5018.48
5000
5000
5000
5000
5000
5000
5000
5000
5000
5000
5000
5000
5000
5000
5000
42143.4
42147.8
42152.2
42156
42162.3
42173.1
42186.9
42201.8
42220.7
42252.7
42299.7
42356.8
42461.4
42445.8
42116.6
42093
42122.6
42123.6
42132.5
42149.4
42173
42233.2
42329.7
42312.9
42299.6
42279.2
42242.8
42196.2
42145.3
42075.8
42010.8
41999.5
42001.8
42010.8
42031.9
42065.2
42115.8
42206.3
42301.5
42342.9
42354.1
42358.2
42348.2
42306.5
42233.1
42151.8
42092.5
42023.4
41699.2
39082.6
25364.8
7646.52
5018.48
5000
5000
5000
5000
5000
5000
5000
5000
5000
5000
5000
5000
5000
5000
5000
42143.4
42147.8
42152.2
42156
42162.3
42173.1
42186.9
42201.8
42220.7
42252.7
42299.7
42356.8
42461.4
42445.8
42116.6
42093
42122.6
42123.6
42132.5
42149.4
42173
42233.2
42329.7
42312.9
42299.6
42279.2
42242.8
42196.2
42145.3
42075.8
42010.8
41999.5
42001.8
42010.8
42031.9
42065.2
42115.8
42206.3
42301.5
42342.9
42354.1
42358.2
42348.2
42306.5
42233.1
42151.8
42092.5
42023.4
41699.2
39082.6
25364.8
7646.52
5018.48
5000
5000
5000
5000
5000
5000
5000
5000
5000
5000
5000
5000
5000
5000
5000
42143.4
42147.8
42152.2
42156
42162.3
42173.1
42186.9
42201.8
42220.7
42252.7
42299.7
42356.8
42461.4
42445.8
42116.6
42093
42122.6
42123.6
42132.5
42149.4
42173
42233.2
42329.7
42312.9
42299.6
42279.2
42242.8
42196.2
42145.3
42075.8
42010.8
41999.5
42001.8
42010.8
42031.9
42065.2
42115.8
42206.3
42301.5
42342.9
42354.1
42358.2
42348.2
42306.5
42233.1
42151.8
42092.5
42023.4
41699.2
39082.6
25364.8
7646.52
5018.48
5000
5000
5000
5000
5000
5000
5000
5000
5000
5000
5000
5000
5000
5000
5000
42143.4
42147.8
42152.2
42156
42162.3
42173.1
42186.9
42201.8
42220.7
42252.7
42299.7
42356.8
42461.4
42445.8
42116.6
42093
42122.6
42123.6
42132.5
42149.4
42173
42233.2
42329.7
42312.9
42299.6
42279.2
42242.8
42196.2
42145.3
42075.8
42010.8
41999.5
42001.8
42010.8
42031.9
42065.2
42115.8
42206.3
42301.5
42342.9
42354.1
42358.2
42348.2
42306.5
42233.1
42151.8
42092.5
42023.4
41699.2
39082.6
25364.8
7646.52
5018.48
5000
5000
5000
5000
5000
5000
5000
5000
5000
5000
5000
5000
5000
5000
5000
42143.4
42147.8
42152.2
42156
42162.3
42173.1
42186.9
42201.8
42220.7
42252.7
42299.7
42356.8
42461.4
42445.8
42116.6
42093
42122.6
42123.6
42132.5
42149.4
42173
42233.2
42329.7
42312.9
42299.6
42279.2
42242.8
42196.2
42145.3
42075.8
42010.8
41999.5
42001.8
42010.8
42031.9
42065.2
42115.8
42206.3
42301.5
42342.9
42354.1
42358.2
42348.2
42306.5
42233.1
42151.8
42092.5
42023.4
41699.2
39082.6
25364.8
7646.52
5018.48
5000
5000
5000
5000
5000
5000
5000
5000
5000
5000
5000
5000
5000
5000
5000
42143.4
42147.8
42152.2
42156
42162.3
42173.1
42186.9
42201.8
42220.7
42252.7
42299.7
42356.8
42461.4
42445.8
42116.6
42093
42122.6
42123.6
42132.5
42149.4
42173
42233.2
42329.7
42312.9
42299.6
42279.2
42242.8
42196.2
42145.3
42075.8
42010.8
41999.5
42001.8
42010.8
42031.9
42065.2
42115.8
42206.3
42301.5
42342.9
42354.1
42358.2
42348.2
42306.5
42233.1
42151.8
42092.5
42023.4
41699.2
39082.6
25364.8
7646.52
5018.48
5000
5000
5000
5000
5000
5000
5000
5000
5000
5000
5000
5000
5000
5000
5000
42143.4
42147.8
42152.2
42156
42162.3
42173.1
42186.9
42201.8
42220.7
42252.7
42299.7
42356.8
42461.4
42445.8
42116.6
42093
42122.6
42123.6
42132.5
42149.4
42173
42233.2
42329.7
42312.9
42299.6
42279.2
42242.8
42196.2
42145.3
42075.8
42010.8
41999.5
42001.8
42010.8
42031.9
42065.2
42115.8
42206.3
42301.5
42342.9
42354.1
42358.2
42348.2
42306.5
42233.1
42151.8
42092.5
42023.4
41699.2
39082.6
25364.8
7646.52
5018.48
5000
5000
5000
5000
5000
5000
5000
5000
5000
5000
5000
5000
5000
5000
5000
42143.4
42147.8
42152.2
42156
42162.3
42173.1
42186.9
42201.8
42220.7
42252.7
42299.7
42356.8
42461.4
42445.8
42116.6
42093
42122.6
42123.6
42132.5
42149.4
42173
42233.2
42329.7
42312.9
42299.6
42279.2
42242.8
42196.2
42145.3
42075.8
42010.8
41999.5
42001.8
42010.8
42031.9
42065.2
42115.8
42206.3
42301.5
42342.9
42354.1
42358.2
42348.2
42306.5
42233.1
42151.8
42092.5
42023.4
41699.2
39082.6
25364.8
7646.52
5018.48
5000
5000
5000
5000
5000
5000
5000
5000
5000
5000
5000
5000
5000
5000
5000
42143.4
42147.8
42152.2
42156
42162.3
42173.1
42186.9
42201.8
42220.7
42252.7
42299.7
42356.8
42461.4
42445.8
42116.6
42093
42122.6
42123.6
42132.5
42149.4
42173
42233.2
42329.7
42312.9
42299.6
42279.2
42242.8
42196.2
42145.3
42075.8
42010.8
41999.5
42001.8
42010.8
42031.9
42065.2
42115.8
42206.3
42301.5
42342.9
42354.1
42358.2
42348.2
42306.5
42233.1
42151.8
42092.5
42023.4
41699.2
39082.6
25364.8
7646.52
5018.48
5000
5000
5000
5000
5000
5000
5000
5000
5000
5000
5000
5000
5000
5000
5000
42143.4
42147.8
42152.2
42156
42162.3
42173.1
42186.9
42201.8
42220.7
42252.7
42299.7
42356.8
42461.4
42445.8
42116.6
42093
42122.6
42123.6
42132.5
42149.4
42173
42233.2
42329.7
42312.9
42299.6
42279.2
42242.8
42196.2
42145.3
42075.8
42010.8
41999.5
42001.8
42010.8
42031.9
42065.2
42115.8
42206.3
42301.5
42342.9
42354.1
42358.2
42348.2
42306.5
42233.1
42151.8
42092.5
42023.4
41699.2
39082.6
25364.8
7646.52
5018.48
5000
5000
5000
5000
5000
5000
5000
5000
5000
5000
5000
5000
5000
5000
5000
42143.4
42147.8
42152.2
42156
42162.3
42173.1
42186.9
42201.8
42220.7
42252.7
42299.7
42356.8
42461.4
42445.8
42116.6
42093
42122.6
42123.6
42132.5
42149.4
42173
42233.2
42329.7
42312.9
42299.6
42279.2
42242.8
42196.2
42145.3
42075.8
42010.8
41999.5
42001.8
42010.8
42031.9
42065.2
42115.8
42206.3
42301.5
42342.9
42354.1
42358.2
42348.2
42306.5
42233.1
42151.8
42092.5
42023.4
41699.2
39082.6
25364.8
7646.52
5018.48
5000
5000
5000
5000
5000
5000
5000
5000
5000
5000
5000
5000
5000
5000
5000
42143.4
42147.8
42152.2
42156
42162.3
42173.1
42186.9
42201.8
42220.7
42252.7
42299.7
42356.8
42461.4
42445.8
42116.6
42093
42122.6
42123.6
42132.5
42149.4
42173
42233.2
42329.7
42312.9
42299.6
42279.2
42242.8
42196.2
42145.3
42075.8
42010.8
41999.5
42001.8
42010.8
42031.9
42065.2
42115.8
42206.3
42301.5
42342.9
42354.1
42358.2
42348.2
42306.5
42233.1
42151.8
42092.5
42023.4
41699.2
39082.6
25364.8
7646.52
5018.48
5000
5000
5000
5000
5000
5000
5000
5000
5000
5000
5000
5000
5000
5000
5000
42143.4
42147.8
42152.2
42156
42162.3
42173.1
42186.9
42201.8
42220.7
42252.7
42299.7
42356.8
42461.4
42445.8
42116.6
42093
42122.6
42123.6
42132.5
42149.4
42173
42233.2
42329.7
42312.9
42299.6
42279.2
42242.8
42196.2
42145.3
42075.8
42010.8
41999.5
42001.8
42010.8
42031.9
42065.2
42115.8
42206.3
42301.5
42342.9
42354.1
42358.2
42348.2
42306.5
42233.1
42151.8
42092.5
42023.4
41699.2
39082.6
25364.8
7646.52
5018.48
5000
5000
5000
5000
5000
5000
5000
5000
5000
5000
5000
5000
5000
5000
5000
42143.4
42147.8
42152.2
42156
42162.3
42173.1
42186.9
42201.8
42220.7
42252.7
42299.7
42356.8
42461.4
42445.8
42116.6
42093
42122.6
42123.6
42132.5
42149.4
42173
42233.2
42329.7
42312.9
42299.6
42279.2
42242.8
42196.2
42145.3
42075.8
42010.8
41999.5
42001.8
42010.8
42031.9
42065.2
42115.8
42206.3
42301.5
42342.9
42354.1
42358.2
42348.2
42306.5
42233.1
42151.8
42092.5
42023.4
41699.2
39082.6
25364.8
7646.52
5018.48
5000
5000
5000
5000
5000
5000
5000
5000
5000
5000
5000
5000
5000
5000
5000
42143.4
42147.8
42152.2
42156
42162.3
42173.1
42186.9
42201.8
42220.7
42252.7
42299.7
42356.8
42461.4
42445.8
42116.6
42093
42122.6
42123.6
42132.5
42149.4
42173
42233.2
42329.7
42312.9
42299.6
42279.2
42242.8
42196.2
42145.3
42075.8
42010.8
41999.5
42001.8
42010.8
42031.9
42065.2
42115.8
42206.3
42301.5
42342.9
42354.1
42358.2
42348.2
42306.5
42233.1
42151.8
42092.5
42023.4
41699.2
39082.6
25364.8
7646.52
5018.48
5000
5000
5000
5000
5000
5000
5000
5000
5000
5000
5000
5000
5000
5000
5000
42143.4
42147.8
42152.2
42156
42162.3
42173.1
42186.9
42201.8
42220.7
42252.7
42299.7
42356.8
42461.4
42445.8
42116.6
42093
42122.6
42123.6
42132.5
42149.4
42173
42233.2
42329.7
42312.9
42299.6
42279.2
42242.8
42196.2
42145.3
42075.8
42010.8
41999.5
42001.8
42010.8
42031.9
42065.2
42115.8
42206.3
42301.5
42342.9
42354.1
42358.2
42348.2
42306.5
42233.1
42151.8
42092.5
42023.4
41699.2
39082.6
25364.8
7646.52
5018.48
5000
5000
5000
5000
5000
5000
5000
5000
5000
5000
5000
5000
5000
5000
5000
42143.4
42147.8
42152.2
42156
42162.3
42173.1
42186.9
42201.8
42220.7
42252.7
42299.7
42356.8
42461.4
42445.8
42116.6
42093
42122.6
42123.6
42132.5
42149.4
42173
42233.2
42329.7
42312.9
42299.6
42279.2
42242.8
42196.2
42145.3
42075.8
42010.8
41999.5
42001.8
42010.8
42031.9
42065.2
42115.8
42206.3
42301.5
42342.9
42354.1
42358.2
42348.2
42306.5
42233.1
42151.8
42092.5
42023.4
41699.2
39082.6
25364.8
7646.52
5018.48
5000
5000
5000
5000
5000
5000
5000
5000
5000
5000
5000
5000
5000
5000
5000
42143.4
42147.8
42152.2
42156
42162.3
42173.1
42186.9
42201.8
42220.7
42252.7
42299.7
42356.8
42461.4
42445.8
42116.6
42093
42122.6
42123.6
42132.5
42149.4
42173
42233.2
42329.7
42312.9
42299.6
42279.2
42242.8
42196.2
42145.3
42075.8
42010.8
41999.5
42001.8
42010.8
42031.9
42065.2
42115.8
42206.3
42301.5
42342.9
42354.1
42358.2
42348.2
42306.5
42233.1
42151.8
42092.5
42023.4
41699.2
39082.6
25364.8
7646.52
5018.48
5000
5000
5000
5000
5000
5000
5000
5000
5000
5000
5000
5000
5000
5000
5000
42143.4
42147.8
42152.2
42156
42162.3
42173.1
42186.9
42201.8
42220.7
42252.7
42299.7
42356.8
42461.4
42445.8
42116.6
42093
42122.6
42123.6
42132.5
42149.4
42173
42233.2
42329.7
42312.9
42299.6
42279.2
42242.8
42196.2
42145.3
42075.8
42010.8
41999.5
42001.8
42010.8
42031.9
42065.2
42115.8
42206.3
42301.5
42342.9
42354.1
42358.2
42348.2
42306.5
42233.1
42151.8
42092.5
42023.4
41699.2
39082.6
25364.8
7646.52
5018.48
5000
5000
5000
5000
5000
5000
5000
5000
5000
5000
5000
5000
5000
5000
5000
42143.4
42147.8
42152.2
42156
42162.3
42173.1
42186.9
42201.8
42220.7
42252.7
42299.7
42356.8
42461.4
42445.8
42116.6
42093
42122.6
42123.6
42132.5
42149.4
42173
42233.2
42329.7
42312.9
42299.6
42279.2
42242.8
42196.2
42145.3
42075.8
42010.8
41999.5
42001.8
42010.8
42031.9
42065.2
42115.8
42206.3
42301.5
42342.9
42354.1
42358.2
42348.2
42306.5
42233.1
42151.8
42092.5
42023.4
41699.2
39082.6
25364.8
7646.52
5018.48
5000
5000
5000
5000
5000
5000
5000
5000
5000
5000
5000
5000
5000
5000
5000
42143.4
42147.8
42152.2
42156
42162.3
42173.1
42186.9
42201.8
42220.7
42252.7
42299.7
42356.8
42461.4
42445.8
42116.6
42093
42122.6
42123.6
42132.5
42149.4
42173
42233.2
42329.7
42312.9
42299.6
42279.2
42242.8
42196.2
42145.3
42075.8
42010.8
41999.5
42001.8
42010.8
42031.9
42065.2
42115.8
42206.3
42301.5
42342.9
42354.1
42358.2
42348.2
42306.5
42233.1
42151.8
42092.5
42023.4
41699.2
39082.6
25364.8
7646.52
5018.48
5000
5000
5000
5000
5000
5000
5000
5000
5000
5000
5000
5000
5000
5000
5000
42143.4
42147.8
42152.2
42156
42162.3
42173.1
42186.9
42201.8
42220.7
42252.7
42299.7
42356.8
42461.4
42445.8
42116.6
42093
42122.6
42123.6
42132.5
42149.4
42173
42233.2
42329.7
42312.9
42299.6
42279.2
42242.8
42196.2
42145.3
42075.8
42010.8
41999.5
42001.8
42010.8
42031.9
42065.2
42115.8
42206.3
42301.5
42342.9
42354.1
42358.2
42348.2
42306.5
42233.1
42151.8
42092.5
42023.4
41699.2
39082.6
25364.8
7646.52
5018.48
5000
5000
5000
5000
5000
5000
5000
5000
5000
5000
5000
5000
5000
5000
5000
42143.4
42147.8
42152.2
42156
42162.3
42173.1
42186.9
42201.8
42220.7
42252.7
42299.7
42356.8
42461.4
42445.8
42116.6
42093
42122.6
42123.6
42132.5
42149.4
42173
42233.2
42329.7
42312.9
42299.6
42279.2
42242.8
42196.2
42145.3
42075.8
42010.8
41999.5
42001.8
42010.8
42031.9
42065.2
42115.8
42206.3
42301.5
42342.9
42354.1
42358.2
42348.2
42306.5
42233.1
42151.8
42092.5
42023.4
41699.2
39082.6
25364.8
7646.52
5018.48
5000
5000
5000
5000
5000
5000
5000
5000
5000
5000
5000
5000
5000
5000
5000
42143.4
42147.8
42152.2
42156
42162.3
42173.1
42186.9
42201.8
42220.7
42252.7
42299.7
42356.8
42461.4
42445.8
42116.6
42093
42122.6
42123.6
42132.5
42149.4
42173
42233.2
42329.7
42312.9
42299.6
42279.2
42242.8
42196.2
42145.3
42075.8
42010.8
41999.5
42001.8
42010.8
42031.9
42065.2
42115.8
42206.3
42301.5
42342.9
42354.1
42358.2
42348.2
42306.5
42233.1
42151.8
42092.5
42023.4
41699.2
39082.6
25364.8
7646.52
5018.48
5000
5000
5000
5000
5000
5000
5000
5000
5000
5000
5000
5000
5000
5000
5000
42143.4
42147.8
42152.2
42156
42162.3
42173.1
42186.9
42201.8
42220.7
42252.7
42299.7
42356.8
42461.4
42445.8
42116.6
42093
42122.6
42123.6
42132.5
42149.4
42173
42233.2
42329.7
42312.9
42299.6
42279.2
42242.8
42196.2
42145.3
42075.8
42010.8
41999.5
42001.8
42010.8
42031.9
42065.2
42115.8
42206.3
42301.5
42342.9
42354.1
42358.2
42348.2
42306.5
42233.1
42151.8
42092.5
42023.4
41699.2
39082.6
25364.8
7646.52
5018.48
5000
5000
5000
5000
5000
5000
5000
5000
5000
5000
5000
5000
5000
5000
5000
42143.4
42147.8
42152.2
42156
42162.3
42173.1
42186.9
42201.8
42220.7
42252.7
42299.7
42356.8
42461.4
42445.8
42116.6
42093
42122.6
42123.6
42132.5
42149.4
42173
42233.2
42329.7
42312.9
42299.6
42279.2
42242.8
42196.2
42145.3
42075.8
42010.8
41999.5
42001.8
42010.8
42031.9
42065.2
42115.8
42206.3
42301.5
42342.9
42354.1
42358.2
42348.2
42306.5
42233.1
42151.8
42092.5
42023.4
41699.2
39082.6
25364.8
7646.52
5018.48
5000
5000
5000
5000
5000
5000
5000
5000
5000
5000
5000
5000
5000
5000
5000
42143.4
42147.8
42152.2
42156
42162.3
42173.1
42186.9
42201.8
42220.7
42252.7
42299.7
42356.8
42461.4
42445.8
42116.6
42093
42122.6
42123.6
42132.5
42149.4
42173
42233.2
42329.7
42312.9
42299.6
42279.2
42242.8
42196.2
42145.3
42075.8
42010.8
41999.5
42001.8
42010.8
42031.9
42065.2
42115.8
42206.3
42301.5
42342.9
42354.1
42358.2
42348.2
42306.5
42233.1
42151.8
42092.5
42023.4
41699.2
39082.6
25364.8
7646.52
5018.48
5000
5000
5000
5000
5000