/*--------------------------------*- C++ -*----------------------------------*\
| =========                 |                                                 |
| \\      /  F ield         | OpenFOAM: The Open Source CFD Toolbox           |
|  \\    /   O peration     | Version:  2306                                  |
|   \\  /    A nd           | Website:  www.openfoam.com                      |
|    \\/     M anipulation  |                                                 |
\*---------------------------------------------------------------------------*/
FoamFile
{
    version     2.0;
    format      ascii;
    arch        "LSB;label=32;scalar=64";
    class       volScalarField;
    location    "1e-05";
    object      rho;
}
// * * * * * * * * * * * * * * * * * * * * * * * * * * * * * * * * * * * * * //

dimensions      [1 -3 0 0 0 0 0];

internalField   nonuniform List<scalar> 
9032
(
1.25998
1.19883
1.12438
1.03624
0.936737
0.831904
0.729515
0.640107
0.582279
0.557545
0.545424
0.537196
0.534848
0.535818
0.53704
0.536796
0.534791
0.531408
0.528052
0.525425
0.523113
0.521246
0.519772
0.518013
0.515494
0.512122
0.507216
0.500745
0.495261
0.492417
0.490099
0.488147
0.486703
0.485686
0.484918
0.484609
0.485559
0.487222
0.48477
0.479884
0.478482
0.470922
0.459075
0.446348
0.432745
0.419393
0.410393
0.405305
0.402219
0.401705
0.400985
0.397972
0.3996
0.404629
0.407988
0.39423
0.286551
0.126682
0.0971397
0.096886
0.096886
0.096886
0.096886
0.096886
0.096886
0.096886
0.096886
0.096886
1.25079
1.19009
1.11541
1.02708
0.928896
0.826385
0.726654
0.639219
0.580089
0.554865
0.543717
0.536135
0.533379
0.534106
0.535028
0.534617
0.532551
0.529703
0.526918
0.524373
0.521996
0.519864
0.517805
0.515343
0.512395
0.508712
0.503529
0.49712
0.492039
0.489241
0.486842
0.484924
0.484177
0.484574
0.485284
0.485475
0.484553
0.483672
0.482079
0.478563
0.474641
0.465563
0.454372
0.443015
0.430478
0.417907
0.408778
0.404576
0.40194
0.399788
0.398691
0.39867
0.399477
0.399573
0.393007
0.352131
0.218544
0.106556
0.096918
0.096886
0.096886
0.096886
0.096886
0.096886
0.096886
0.096886
0.096886
0.096886
1.29738
1.24453
1.17587
1.08798
0.981944
0.865381
0.750579
0.65096
0.583802
0.555109
0.543941
0.536558
0.532893
0.533198
0.534021
0.53392
0.532447
0.530401
0.528546
0.526377
0.523985
0.521536
0.519018
0.516075
0.512695
0.508411
0.502766
0.496855
0.492839
0.490312
0.488018
0.486291
0.485347
0.485324
0.486328
0.48698
0.486694
0.486059
0.484364
0.481048
0.477979
0.468692
0.4568
0.444493
0.430798
0.416753
0.406729
0.402586
0.400606
0.398204
0.395859
0.396703
0.39672
0.394253
0.38657
0.333714
0.175926
0.0995221
0.0968886
0.096886
0.096886
0.096886
0.096886
0.096886
0.096886
0.096886
0.096886
0.096886
1.3269
1.2818
1.22083
1.13751
1.02992
0.905034
0.778531
0.668669
0.592226
0.556664
0.544292
0.53718
0.532646
0.53169
0.531963
0.532
0.53132
0.530223
0.529398
0.527959
0.525242
0.522344
0.51938
0.516148
0.512238
0.506737
0.499697
0.494824
0.492065
0.489658
0.487687
0.486179
0.485162
0.485128
0.486402
0.487713
0.487853
0.487113
0.48548
0.482509
0.479163
0.469376
0.456556
0.44353
0.430155
0.415884
0.404808
0.400375
0.398739
0.396352
0.394908
0.395352
0.39493
0.39187
0.375844
0.287396
0.131825
0.0972637
0.0968861
0.096886
0.096886
0.096886
0.096886
0.096886
0.096886
0.096886
0.096886
0.096886
1.34184
1.30271
1.24933
1.17338
1.07144
0.948244
0.817402
0.698839
0.608384
0.560111
0.544118
0.53687
0.531872
0.529714
0.529483
0.529516
0.529545
0.529545
0.529572
0.528968
0.526356
0.523183
0.519657
0.515582
0.51055
0.504043
0.497501
0.493814
0.491302
0.489348
0.487812
0.486386
0.485063
0.484267
0.484787
0.487111
0.488418
0.487411
0.485091
0.482294
0.478427
0.468709
0.456433
0.444751
0.431568
0.415561
0.402979
0.398023
0.396255
0.395824
0.395194
0.394146
0.393292
0.391314
0.365638
0.234782
0.108786
0.0969263
0.096886
0.096886
0.096886
0.096886
0.096886
0.096886
0.096886
0.096886
0.096886
0.096886
1.34285
1.30696
1.26028
1.19388
1.10175
0.985318
0.85546
0.730675
0.629043
0.56615
0.543866
0.536013
0.53055
0.527262
0.5264
0.526569
0.527248
0.527955
0.528576
0.528724
0.526811
0.52365
0.51989
0.5151
0.50857
0.50068
0.495199
0.492274
0.490005
0.48831
0.487014
0.486023
0.485018
0.483542
0.482909
0.485827
0.487961
0.485646
0.483739
0.482047
0.476792
0.467578
0.456422
0.44601
0.432821
0.414764
0.401041
0.396477
0.395029
0.39433
0.393795
0.393513
0.394028
0.389343
0.336018
0.17488
0.0993627
0.0968883
0.096886
0.096886
0.096886
0.096886
0.096886
0.096886
0.096886
0.096886
0.096886
0.096886
1.33757
1.30439
1.26303
1.2052
1.12297
1.0153
0.889908
0.762387
0.651561
0.575139
0.544353
0.534761
0.528754
0.52457
0.523047
0.52325
0.524275
0.525502
0.526591
0.527365
0.526018
0.523133
0.519311
0.514147
0.507071
0.499057
0.493814
0.490721
0.488151
0.486189
0.485103
0.484892
0.484657
0.483676
0.482711
0.48371
0.484509
0.482578
0.482338
0.481063
0.474802
0.466579
0.45701
0.448428
0.435721
0.415666
0.401362
0.395628
0.394063
0.393559
0.393439
0.393889
0.39451
0.383221
0.291422
0.131819
0.097249
0.0968861
0.096886
0.096886
0.096886
0.096886
0.096886
0.096886
0.096886
0.096886
0.096886
0.096886
1.32841
1.29844
1.2618
1.21225
1.1399
1.04098
0.920734
0.7926
0.674978
0.586491
0.545524
0.533764
0.527088
0.521991
0.520011
0.520048
0.521024
0.52253
0.52416
0.525089
0.523649
0.520793
0.51684
0.511401
0.504281
0.497545
0.493361
0.490214
0.487145
0.484448
0.48297
0.482846
0.483148
0.483671
0.483281
0.481437
0.480403
0.479926
0.479597
0.478285
0.473237
0.466455
0.459254
0.452277
0.43889
0.416339
0.40141
0.395853
0.393656
0.39328
0.393332
0.39447
0.393184
0.365052
0.230079
0.107518
0.0969182
0.096886
0.096886
0.096886
0.096886
0.096886
0.096886
0.096886
0.096886
0.096886
0.096886
0.096886
1.31775
1.29057
1.25853
1.21537
1.15235
1.06254
0.948589
0.821757
0.699514
0.60212
0.549732
0.533109
0.525064
0.519242
0.517135
0.516978
0.517822
0.519513
0.521798
0.522504
0.520467
0.517
0.512222
0.506173
0.499762
0.495013
0.492003
0.489347
0.486527
0.483843
0.481857
0.48062
0.480605
0.482302
0.483067
0.48034
0.477903
0.477355
0.476145
0.474869
0.471947
0.466918
0.46165
0.454628
0.442411
0.422887
0.405321
0.398442
0.395236
0.394117
0.393757
0.394041
0.388767
0.333102
0.170903
0.0990354
0.0968878
0.096886
0.096886
0.096886
0.096886
0.096886
0.096886
0.096886
0.096886
0.096886
0.096886
0.096886
1.30263
1.2793
1.25209
1.21456
1.16006
1.07979
0.973698
0.850535
0.72616
0.621878
0.557463
0.532868
0.52253
0.516374
0.514268
0.5139
0.514648
0.51666
0.519545
0.520008
0.517835
0.513692
0.50753
0.500176
0.494711
0.4917
0.489419
0.487505
0.485754
0.483895
0.481715
0.479406
0.478301
0.479047
0.480366
0.479273
0.477052
0.47555
0.473592
0.471416
0.470054
0.467291
0.462879
0.45685
0.447563
0.429801
0.408112
0.398348
0.397379
0.395452
0.394104
0.392421
0.377449
0.280368
0.126416
0.09714
0.096886
0.096886
0.096886
0.096886
0.096886
0.096886
0.096886
0.096886
0.096886
0.096886
0.096886
0.096886
1.28505
1.26602
1.24353
1.21152
1.16375
1.093
0.996285
0.878741
0.754191
0.644585
0.569101
0.533147
0.519449
0.51367
0.511433
0.510717
0.511436
0.513839
0.516576
0.516962
0.515016
0.510699
0.503823
0.496408
0.491772
0.488864
0.486474
0.484758
0.483792
0.482997
0.481273
0.479262
0.477529
0.476214
0.475981
0.476613
0.476016
0.47431
0.472244
0.469669
0.46813
0.466658
0.463136
0.45804
0.450031
0.435192
0.417582
0.408303
0.403653
0.39798
0.394629
0.389886
0.356332
0.215333
0.104607
0.0969037
0.096886
0.096886
0.096886
0.096886
0.096886
0.096886
0.096886
0.096886
0.096886
0.096886
0.096886
0.096886
1.26557
1.25163
1.23389
1.20727
1.16548
1.10408
1.01687
0.905934
0.782883
0.668906
0.583231
0.533959
0.516142
0.511307
0.508749
0.507594
0.508135
0.510465
0.5124
0.51215
0.509935
0.505578
0.499652
0.494554
0.490953
0.487655
0.48466
0.48223
0.48089
0.480355
0.479606
0.478873
0.477452
0.475037
0.473089
0.472612
0.473386
0.472909
0.471008
0.468813
0.466555
0.464802
0.46209
0.45692
0.451156
0.441831
0.427746
0.417698
0.410636
0.401953
0.395174
0.383043
0.315128
0.153721
0.0980293
0.0968866
0.096886
0.096886
0.096886
0.096886
0.096886
0.096886
0.096886
0.096886
0.096886
0.096886
0.096886
0.096886
1.24078
1.23288
1.21952
1.19878
1.16428
1.11206
1.03494
0.931415
0.811231
0.69346
0.598248
0.536352
0.513891
0.509379
0.506598
0.505074
0.505246
0.506701
0.507293
0.506025
0.502788
0.498043
0.49408
0.491956
0.489959
0.487427
0.484394
0.481294
0.478692
0.477064
0.476568
0.4767
0.476183
0.474442
0.472045
0.470281
0.469746
0.470202
0.469392
0.467411
0.464863
0.462005
0.459204
0.455265
0.451898
0.447255
0.439232
0.433089
0.424589
0.408622
0.394871
0.367885
0.252644
0.114987
0.0969795
0.096886
0.096886
0.096886
0.096886
0.096886
0.096886
0.096886
0.096886
0.096886
0.096886
0.096886
0.096886
0.096886
1.21465
1.21146
1.20169
1.1858
1.15882
1.11467
1.04804
0.953169
0.837825
0.718048
0.614521
0.539562
0.512258
0.507322
0.504684
0.503058
0.502886
0.503074
0.502248
0.499842
0.495718
0.491341
0.488876
0.487505
0.486556
0.485387
0.483515
0.480976
0.47799
0.475182
0.473404
0.472783
0.472893
0.472757
0.47146
0.469361
0.467687
0.467065
0.466664
0.465189
0.462845
0.460331
0.457832
0.455595
0.454108
0.451462
0.448302
0.447986
0.442607
0.4202
0.393814
0.334683
0.179823
0.0999719
0.0968895
0.096886
0.096886
0.096886
0.096886
0.096886
0.096886
0.096886
0.096886
0.096886
0.096886
0.096886
0.096886
0.096886
1.17499
1.18632
1.17963
1.16795
1.14737
1.11122
1.05348
0.968927
0.860509
0.740872
0.630977
0.54761
0.511553
0.505271
0.502757
0.500787
0.499623
0.498442
0.496453
0.493522
0.490237
0.487365
0.485044
0.483027
0.481964
0.481705
0.481144
0.479667
0.477355
0.47449
0.471649
0.469633
0.468688
0.46892
0.469396
0.468535
0.466817
0.465183
0.463945
0.462975
0.461792
0.460377
0.458289
0.456151
0.456698
0.458961
0.460923
0.466174
0.463983
0.436654
0.390808
0.276467
0.124791
0.0971223
0.096886
0.096886
0.096886
0.096886
0.096886
0.096886
0.096886
0.096886
0.096886
0.096886
0.096886
0.096886
0.096886
0.096886
1.08548
1.1554
1.15712
1.14824
1.13172
1.10197
1.05223
0.977909
0.877827
0.761239
0.648051
0.55718
0.51121
0.502567
0.499554
0.496967
0.494774
0.492378
0.489464
0.486846
0.485597
0.484944
0.483566
0.481305
0.479185
0.478087
0.477468
0.47671
0.475501
0.473492
0.470859
0.468023
0.465867
0.464867
0.465281
0.46641
0.465883
0.464126
0.462531
0.462181
0.46216
0.461553
0.46082
0.460645
0.462452
0.466273
0.473248
0.483557
0.483513
0.453818
0.370255
0.194866
0.101269
0.0968926
0.096886
0.096886
0.096886
0.096886
0.096886
0.096886
0.096886
0.096886
0.096886
0.096886
0.096886
0.096886
0.096886
0.096886
0.923879
1.07876
1.1343
1.12911
1.11561
1.09007
1.0471
0.981713
0.890332
0.778569
0.664068
0.567934
0.514486
0.500152
0.495528
0.491636
0.487959
0.48443
0.481558
0.480319
0.480324
0.480957
0.481627
0.481506
0.47954
0.476981
0.474669
0.472885
0.471829
0.471045
0.469598
0.46747
0.464868
0.462885
0.462058
0.462556
0.463851
0.463648
0.463092
0.463061
0.463435
0.464723
0.466323
0.468238
0.470741
0.474009
0.479575
0.491481
0.490573
0.456263
0.314127
0.131277
0.0972086
0.0968861
0.096886
0.096886
0.096886
0.096886
0.096886
0.096886
0.096886
0.096886
0.096886
0.096886
0.096886
0.096886
0.096886
0.096886
0.793732
0.926076
1.07419
1.10983
1.10142
1.08018
1.04202
0.983613
0.900008
0.793982
0.680493
0.579819
0.518861
0.498581
0.49097
0.485241
0.480539
0.476968
0.474941
0.474334
0.474622
0.475784
0.47761
0.479467
0.479639
0.477628
0.474611
0.470962
0.468389
0.466974
0.466546
0.465919
0.464621
0.46262
0.460716
0.460082
0.461122
0.463602
0.464461
0.464593
0.465425
0.466992
0.468511
0.469324
0.470251
0.471655
0.471968
0.468525
0.451707
0.397711
0.248426
0.112147
0.0969613
0.096886
0.096886
0.096886
0.096886
0.096886
0.096886
0.096886
0.096886
0.096886
0.096886
0.096886
0.096886
0.096886
0.096886
0.096886
0.757703
0.797896
0.925831
1.06413
1.08356
1.07112
1.03869
0.985359
0.908563
0.808414
0.696991
0.594054
0.524132
0.496273
0.485262
0.47788
0.4733
0.470941
0.470018
0.4699
0.47036
0.471417
0.473168
0.475677
0.477223
0.476368
0.474241
0.471291
0.467073
0.463963
0.462464
0.462319
0.462817
0.462401
0.461205
0.459714
0.459763
0.462043
0.464443
0.4647
0.464873
0.46555
0.466758
0.466253
0.462881
0.453887
0.43551
0.407596
0.377265
0.33754
0.234332
0.11435
0.0970057
0.096886
0.096886
0.096886
0.096886
0.096886
0.096886
0.096886
0.096886
0.096886
0.096886
0.096886
0.096886
0.096886
0.096886
0.096886
0.754004
0.758416
0.797998
0.921477
1.04535
1.054
1.03364
0.986115
0.915426
0.821477
0.713334
0.609501
0.530658
0.491837
0.476987
0.470104
0.467212
0.466041
0.46597
0.466743
0.468183
0.469661
0.47057
0.471634
0.472548
0.472671
0.471632
0.469568
0.46691
0.463044
0.459761
0.458408
0.458765
0.46072
0.461438
0.460737
0.459482
0.459863
0.462855
0.464124
0.462703
0.458652
0.452265
0.441459
0.423262
0.397622
0.371219
0.354111
0.344874
0.32652
0.239516
0.117588
0.0970544
0.096886
0.096886
0.096886
0.096886
0.096886
0.096886
0.096886
0.096886
0.096886
0.096886
0.096886
0.096886
0.096886
0.096886
0.096886
0.753591
0.753677
0.757954
0.793695
0.910048
1.01371
1.01491
0.982634
0.919457
0.832523
0.727795
0.62324
0.537108
0.485558
0.468362
0.464081
0.4622
0.461452
0.461843
0.463469
0.466247
0.469532
0.471396
0.470321
0.468511
0.467075
0.466233
0.465648
0.464289
0.462075
0.458768
0.45581
0.454893
0.456037
0.459374
0.460939
0.460208
0.457305
0.455548
0.453461
0.447076
0.433819
0.413263
0.388532
0.366099
0.351981
0.346585
0.345041
0.342903
0.327596
0.241721
0.118329
0.0970652
0.096886
0.096886
0.096886
0.096886
0.096886
0.096886
0.096886
0.096886
0.096886
0.096886
0.096886
0.096886
0.096886
0.096886
0.096886
0.753958
0.753733
0.752917
0.755923
0.785016
0.886299
0.96902
0.964005
0.918534
0.83929
0.738975
0.63396
0.541547
0.478941
0.461907
0.458894
0.457333
0.456807
0.45746
0.459448
0.462711
0.466729
0.470057
0.469808
0.467349
0.463691
0.46106
0.45944
0.459154
0.459246
0.458345
0.456519
0.452854
0.45085
0.450849
0.452501
0.451583
0.44661
0.435829
0.418372
0.397443
0.376892
0.360592
0.351019
0.347037
0.3458
0.345425
0.34508
0.343442
0.328404
0.242136
0.118389
0.0970657
0.096886
0.096886
0.096886
0.096886
0.096886
0.096886
0.096886
0.096886
0.096886
0.096886
0.096886
0.096886
0.096886
0.096886
0.096886
0.754065
0.753866
0.753519
0.75039
0.751717
0.771656
0.850723
0.911938
0.899029
0.839427
0.745656
0.641416
0.544927
0.475554
0.457202
0.45457
0.453531
0.453061
0.453417
0.454914
0.457727
0.461592
0.465283
0.466814
0.466015
0.464025
0.459793
0.455085
0.452776
0.451871
0.452291
0.451684
0.449672
0.445241
0.436593
0.426379
0.414697
0.399798
0.382213
0.36614
0.355307
0.349915
0.347843
0.347002
0.346404
0.345896
0.345602
0.34534
0.343715
0.328547
0.242149
0.118376
0.0970655
0.096886
0.096886
0.096886
0.096886
0.096886
0.096886
0.096886
0.096886
0.096886
0.096886
0.096886
0.096886
0.096886
0.096886
0.096886
0.75406
0.753958
0.753618
0.751997
0.749362
0.742071
0.751295
0.801575
0.840332
0.819572
0.745588
0.645111
0.54807
0.474828
0.453691
0.451106
0.450844
0.450914
0.451029
0.451525
0.453028
0.45542
0.457639
0.459243
0.459896
0.459095
0.457332
0.454605
0.448298
0.44111
0.435512
0.429781
0.422005
0.410513
0.395935
0.380407
0.366528
0.356594
0.351242
0.34904
0.348272
0.347886
0.347517
0.347079
0.346521
0.346005
0.345708
0.345415
0.343749
0.328553
0.24214
0.118371
0.0970654
0.096886
0.096886
0.096886
0.096886
0.096886
0.096886
0.096886
0.096886
0.096886
0.096886
0.096886
0.096886
0.096886
0.096886
0.096886
0.754053
0.753982
0.753592
0.752405
0.749574
0.74399
0.732259
0.721012
0.742085
0.756643
0.722016
0.638987
0.548478
0.475772
0.449309
0.446222
0.446031
0.44635
0.447106
0.448529
0.450513
0.4517
0.450741
0.448486
0.44585
0.443054
0.439625
0.433997
0.425597
0.414933
0.402147
0.387947
0.374004
0.362298
0.354006
0.349408
0.347806
0.347666
0.348015
0.348197
0.348131
0.347921
0.347579
0.347141
0.346571
0.346034
0.345721
0.345419
0.343748
0.328551
0.242138
0.11837
0.0970654
0.096886
0.096886
0.096886
0.096886
0.096886
0.096886
0.096886
0.096886
0.096886
0.096886
0.096886
0.096886
0.096886
0.096886
0.096886
0.754052
0.753983
0.753581
0.752396
0.749652
0.744001
0.733025
0.713887
0.687146
0.670382
0.652138
0.60394
0.53324
0.469115
0.438419
0.434245
0.433452
0.432776
0.432131
0.431782
0.432071
0.43251
0.430632
0.426145
0.419255
0.410101
0.399357
0.388173
0.377232
0.36655
0.357317
0.350871
0.347273
0.34583
0.345601
0.345881
0.346528
0.347322
0.348023
0.34821
0.348148
0.347944
0.347602
0.347154
0.346576
0.346035
0.345721
0.345418
0.343747
0.32855
0.242137
0.11837
0.0970654
0.096886
0.096886
0.096886
0.096886
0.096886
0.096886
0.096886
0.096886
0.096886
0.096886
0.096886
0.096886
0.096886
0.096886
0.096886
0.754052
0.753983
0.75358
0.752394
0.749654
0.744007
0.733251
0.714275
0.683699
0.640218
0.591497
0.541777
0.487087
0.435872
0.405771
0.399798
0.39855
0.39676
0.394249
0.391211
0.388234
0.385635
0.382055
0.376633
0.37033
0.364067
0.358504
0.353903
0.350186
0.347194
0.345319
0.344781
0.344741
0.344863
0.345221
0.345812
0.346544
0.347339
0.348032
0.348219
0.348156
0.347949
0.347604
0.347155
0.346575
0.346035
0.345721
0.345418
0.343747
0.32855
0.242137
0.11837
0.0970654
0.096886
0.096886
0.096886
0.096886
0.096886
0.096886
0.096886
0.096886
0.096886
0.096886
0.096886
0.096886
0.096886
0.096886
0.096886
0.754052
0.753983
0.75358
0.752394
0.749654
0.744006
0.733263
0.714363
0.683814
0.638936
0.579811
0.51241
0.447169
0.394016
0.363106
0.355667
0.354652
0.3536
0.352344
0.351457
0.351281
0.352071
0.352624
0.352075
0.351145
0.350222
0.349333
0.348328
0.347149
0.345831
0.344851
0.344661
0.344693
0.344853
0.345222
0.345815
0.346549
0.347344
0.348035
0.348221
0.348157
0.34795
0.347604
0.347155
0.346575
0.346035
0.345721
0.345418
0.343747
0.32855
0.242137
0.11837
0.0970654
0.096886
0.096886
0.096886
0.096886
0.096886
0.096886
0.096886
0.096886
0.096886
0.096886
0.096886
0.096886
0.096886
0.096886
0.096886
0.754052
0.753983
0.75358
0.752394
0.749653
0.744006
0.733263
0.714366
0.683841
0.638961
0.579518
0.509732
0.439608
0.382174
0.34944
0.341771
0.341431
0.341413
0.34167
0.342542
0.344233
0.346721
0.34912
0.34976
0.349736
0.349519
0.349024
0.348205
0.347108
0.345822
0.34485
0.344661
0.344693
0.344854
0.345223
0.345816
0.346549
0.347344
0.348035
0.348221
0.348157
0.34795
0.347604
0.347155
0.346575
0.346035
0.345721
0.345418
0.343747
0.32855
0.242137
0.11837
0.0970654
0.096886
0.096886
0.096886
0.096886
0.096886
0.096886
0.096886
0.096886
0.096886
0.096886
0.096886
0.096886
0.096886
0.096886
0.096886
0.754052
0.753983
0.75358
0.752394
0.749653
0.744006
0.733263
0.714366
0.683843
0.638966
0.579521
0.509699
0.439373
0.381617
0.348702
0.341045
0.340773
0.34084
0.341227
0.342228
0.34403
0.3466
0.349063
0.349733
0.349721
0.349513
0.349022
0.348205
0.347108
0.345822
0.34485
0.344661
0.344694
0.344854
0.345223
0.345816
0.346549
0.347344
0.348035
0.348221
0.348157
0.34795
0.347604
0.347155
0.346575
0.346035
0.345721
0.345418
0.343747
0.32855
0.242137
0.11837
0.0970654
0.096886
0.096886
0.096886
0.096886
0.096886
0.096886
0.096886
0.096886
0.096886
0.096886
0.096886
0.096886
0.096886
0.096886
0.096886
0.754052
0.753983
0.75358
0.752394
0.749653
0.744006
0.733263
0.714366
0.683843
0.638967
0.579521
0.509699
0.439372
0.381614
0.348697
0.34104
0.340769
0.340836
0.341225
0.342227
0.344029
0.3466
0.349063
0.349733
0.349721
0.349513
0.349022
0.348205
0.347108
0.345822
0.34485
0.344661
0.344694
0.344854
0.345223
0.345816
0.346549
0.347344
0.348035
0.348221
0.348157
0.34795
0.347604
0.347155
0.346575
0.346035
0.345721
0.345418
0.343747
0.32855
0.242137
0.11837
0.0970654
0.096886
0.096886
0.096886
0.096886
0.096886
0.096886
0.096886
0.096886
0.096886
0.096886
0.096886
0.096886
0.096886
0.096886
0.096886
0.754052
0.753983
0.75358
0.752394
0.749653
0.744006
0.733263
0.714366
0.683843
0.638967
0.579521
0.509699
0.439372
0.381614
0.348697
0.34104
0.340769
0.340836
0.341225
0.342227
0.344029
0.3466
0.349063
0.349733
0.349721
0.349513
0.349022
0.348205
0.347108
0.345822
0.34485
0.344661
0.344694
0.344854
0.345223
0.345816
0.346549
0.347344
0.348035
0.348221
0.348157
0.34795
0.347604
0.347155
0.346575
0.346035
0.345721
0.345418
0.343747
0.32855
0.242137
0.11837
0.0970654
0.096886
0.096886
0.096886
0.096886
0.096886
0.096886
0.096886
0.096886
0.096886
0.096886
0.096886
0.096886
0.096886
0.096886
0.096886
0.754052
0.753983
0.75358
0.752394
0.749653
0.744006
0.733263
0.714366
0.683843
0.638967
0.579521
0.509699
0.439372
0.381614
0.348697
0.34104
0.340769
0.340836
0.341225
0.342227
0.344029
0.3466
0.349063
0.349733
0.349721
0.349513
0.349022
0.348205
0.347108
0.345822
0.34485
0.344661
0.344694
0.344854
0.345223
0.345816
0.346549
0.347344
0.348035
0.348221
0.348157
0.34795
0.347604
0.347155
0.346575
0.346035
0.345721
0.345418
0.343747
0.32855
0.242137
0.11837
0.0970654
0.096886
0.096886
0.096886
0.096886
0.096886
0.096886
0.096886
0.096886
0.096886
0.096886
0.096886
0.096886
0.096886
0.096886
0.096886
0.754052
0.753983
0.75358
0.752394
0.749653
0.744006
0.733263
0.714366
0.683843
0.638967
0.579521
0.509699
0.439372
0.381614
0.348697
0.34104
0.340769
0.340836
0.341225
0.342227
0.344029
0.3466
0.349063
0.349733
0.349721
0.349513
0.349022
0.348205
0.347108
0.345822
0.34485
0.344661
0.344694
0.344854
0.345223
0.345816
0.346549
0.347344
0.348035
0.348221
0.348157
0.34795
0.347604
0.347155
0.346575
0.346035
0.345721
0.345418
0.343747
0.32855
0.242137
0.11837
0.0970654
0.096886
0.096886
0.096886
0.096886
0.096886
0.096886
0.096886
0.096886
0.096886
0.096886
0.096886
0.096886
0.096886
0.096886
0.096886
0.754052
0.753983
0.75358
0.752394
0.749653
0.744006
0.733263
0.714366
0.683843
0.638967
0.579521
0.509699
0.439372
0.381614
0.348697
0.34104
0.340769
0.340836
0.341225
0.342227
0.344029
0.3466
0.349063
0.349733
0.349721
0.349513
0.349022
0.348205
0.347108
0.345822
0.34485
0.344661
0.344694
0.344854
0.345223
0.345816
0.346549
0.347344
0.348035
0.348221
0.348157
0.34795
0.347604
0.347155
0.346575
0.346035
0.345721
0.345418
0.343747
0.32855
0.242137
0.11837
0.0970654
0.096886
0.096886
0.096886
0.096886
0.096886
0.096886
0.096886
0.096886
0.096886
0.096886
0.096886
0.096886
0.096886
0.096886
0.096886
0.754052
0.753983
0.75358
0.752394
0.749653
0.744006
0.733263
0.714366
0.683843
0.638967
0.579521
0.509699
0.439372
0.381614
0.348697
0.34104
0.340769
0.340836
0.341225
0.342227
0.344029
0.3466
0.349063
0.349733
0.349721
0.349513
0.349022
0.348205
0.347108
0.345822
0.34485
0.344661
0.344694
0.344854
0.345223
0.345816
0.346549
0.347344
0.348035
0.348221
0.348157
0.34795
0.347604
0.347155
0.346575
0.346035
0.345721
0.345418
0.343747
0.32855
0.242137
0.11837
0.0970654
0.096886
0.096886
0.096886
0.096886
0.096886
0.096886
0.096886
0.096886
0.096886
0.096886
0.096886
0.096886
0.096886
0.096886
0.096886
0.754052
0.753983
0.75358
0.752394
0.749653
0.744006
0.733263
0.714366
0.683843
0.638967
0.579521
0.509699
0.439372
0.381614
0.348697
0.34104
0.340769
0.340836
0.341225
0.342227
0.344029
0.3466
0.349063
0.349733
0.349721
0.349513
0.349022
0.348205
0.347108
0.345822
0.34485
0.344661
0.344694
0.344854
0.345223
0.345816
0.346549
0.347344
0.348035
0.348221
0.348157
0.34795
0.347604
0.347155
0.346575
0.346035
0.345721
0.345418
0.343747
0.32855
0.242137
0.11837
0.0970654
0.096886
0.096886
0.096886
0.096886
0.096886
0.096886
0.096886
0.096886
0.096886
0.096886
0.096886
0.096886
0.096886
0.096886
0.096886
0.754052
0.753983
0.75358
0.752394
0.749653
0.744006
0.733263
0.714366
0.683843
0.638967
0.579521
0.509699
0.439372
0.381614
0.348697
0.34104
0.340769
0.340836
0.341225
0.342227
0.344029
0.3466
0.349063
0.349733
0.349721
0.349513
0.349022
0.348205
0.347108
0.345822
0.34485
0.344661
0.344694
0.344854
0.345223
0.345816
0.346549
0.347344
0.348035
0.348221
0.348157
0.34795
0.347604
0.347155
0.346575
0.346035
0.345721
0.345418
0.343747
0.32855
0.242137
0.11837
0.0970654
0.096886
0.096886
0.096886
0.096886
0.096886
0.096886
0.096886
0.096886
0.096886
0.096886
0.096886
0.096886
0.096886
0.096886
0.096886
0.754052
0.753983
0.75358
0.752394
0.749653
0.744006
0.733263
0.714366
0.683843
0.638967
0.579521
0.509699
0.439372
0.381614
0.348697
0.34104
0.340769
0.340836
0.341225
0.342227
0.344029
0.3466
0.349063
0.349733
0.349721
0.349513
0.349022
0.348205
0.347108
0.345822
0.34485
0.344661
0.344694
0.344854
0.345223
0.345816
0.346549
0.347344
0.348035
0.348221
0.348157
0.34795
0.347604
0.347155
0.346575
0.346035
0.345721
0.345418
0.343747
0.32855
0.242137
0.11837
0.0970654
0.096886
0.096886
0.096886
0.096886
0.096886
0.096886
0.096886
0.096886
0.096886
0.096886
0.096886
0.096886
0.096886
0.096886
0.096886
0.754052
0.753983
0.75358
0.752394
0.749653
0.744006
0.733263
0.714366
0.683843
0.638967
0.579521
0.509699
0.439372
0.381614
0.348697
0.34104
0.340769
0.340836
0.341225
0.342227
0.344029
0.3466
0.349063
0.349733
0.349721
0.349513
0.349022
0.348205
0.347108
0.345822
0.34485
0.344661
0.344694
0.344854
0.345223
0.345816
0.346549
0.347344
0.348035
0.348221
0.348157
0.34795
0.347604
0.347155
0.346575
0.346035
0.345721
0.345418
0.343747
0.32855
0.242137
0.11837
0.0970654
0.096886
0.096886
0.096886
0.096886
0.096886
0.096886
0.096886
0.096886
0.096886
0.096886
0.096886
0.096886
0.096886
0.096886
0.096886
0.754052
0.753983
0.75358
0.752394
0.749653
0.744006
0.733263
0.714366
0.683843
0.638967
0.579521
0.509699
0.439372
0.381614
0.348697
0.34104
0.340769
0.340836
0.341225
0.342227
0.344029
0.3466
0.349063
0.349733
0.349721
0.349513
0.349022
0.348205
0.347108
0.345822
0.34485
0.344661
0.344694
0.344854
0.345223
0.345816
0.346549
0.347344
0.348035
0.348221
0.348157
0.34795
0.347604
0.347155
0.346575
0.346035
0.345721
0.345418
0.343747
0.32855
0.242137
0.11837
0.0970654
0.096886
0.096886
0.096886
0.096886
0.096886
0.096886
0.096886
0.096886
0.096886
0.096886
0.096886
0.096886
0.096886
0.096886
0.096886
0.754052
0.753983
0.75358
0.752394
0.749653
0.744006
0.733263
0.714366
0.683843
0.638967
0.579521
0.509699
0.439372
0.381614
0.348697
0.34104
0.340769
0.340836
0.341225
0.342227
0.344029
0.3466
0.349063
0.349733
0.349721
0.349513
0.349022
0.348205
0.347108
0.345822
0.34485
0.344661
0.344694
0.344854
0.345223
0.345816
0.346549
0.347344
0.348035
0.348221
0.348157
0.34795
0.347604
0.347155
0.346575
0.346035
0.345721
0.345418
0.343747
0.32855
0.242137
0.11837
0.0970654
0.096886
0.096886
0.096886
0.096886
0.096886
0.096886
0.096886
0.096886
0.096886
0.096886
0.096886
0.096886
0.096886
0.096886
0.096886
0.754052
0.753983
0.75358
0.752394
0.749653
0.744006
0.733263
0.714366
0.683843
0.638967
0.579521
0.509699
0.439372
0.381614
0.348697
0.34104
0.340769
0.340836
0.341225
0.342227
0.344029
0.3466
0.349063
0.349733
0.349721
0.349513
0.349022
0.348205
0.347108
0.345822
0.34485
0.344661
0.344694
0.344854
0.345223
0.345816
0.346549
0.347344
0.348035
0.348221
0.348157
0.34795
0.347604
0.347155
0.346575
0.346035
0.345721
0.345418
0.343747
0.32855
0.242137
0.11837
0.0970654
0.096886
0.096886
0.096886
0.096886
0.096886
0.096886
0.096886
0.096886
0.096886
0.096886
0.096886
0.096886
0.096886
0.096886
0.096886
0.754052
0.753983
0.75358
0.752394
0.749653
0.744006
0.733263
0.714366
0.683843
0.638967
0.579521
0.509699
0.439372
0.381614
0.348697
0.34104
0.340769
0.340836
0.341225
0.342227
0.344029
0.3466
0.349063
0.349733
0.349721
0.349513
0.349022
0.348205
0.347108
0.345822
0.34485
0.344661
0.344694
0.344854
0.345223
0.345816
0.346549
0.347344
0.348035
0.348221
0.348157
0.34795
0.347604
0.347155
0.346575
0.346035
0.345721
0.345418
0.343747
0.32855
0.242137
0.11837
0.0970654
0.096886
0.096886
0.096886
0.096886
0.096886
0.096886
0.096886
0.096886
0.096886
0.096886
0.096886
0.096886
0.096886
0.096886
0.096886
0.754052
0.753983
0.75358
0.752394
0.749653
0.744006
0.733263
0.714366
0.683843
0.638967
0.579521
0.509699
0.439372
0.381614
0.348697
0.34104
0.340769
0.340836
0.341225
0.342227
0.344029
0.3466
0.349063
0.349733
0.349721
0.349513
0.349022
0.348205
0.347108
0.345822
0.34485
0.344661
0.344694
0.344854
0.345223
0.345816
0.346549
0.347344
0.348035
0.348221
0.348157
0.34795
0.347604
0.347155
0.346575
0.346035
0.345721
0.345418
0.343747
0.32855
0.242137
0.11837
0.0970654
0.096886
0.096886
0.096886
0.096886
0.096886
0.096886
0.096886
0.096886
0.096886
0.096886
0.096886
0.096886
0.096886
0.096886
0.096886
0.754052
0.753983
0.75358
0.752394
0.749653
0.744006
0.733263
0.714366
0.683843
0.638967
0.579521
0.509699
0.439372
0.381614
0.348697
0.34104
0.340769
0.340836
0.341225
0.342227
0.344029
0.3466
0.349063
0.349733
0.349721
0.349513
0.349022
0.348205
0.347108
0.345822
0.34485
0.344661
0.344694
0.344854
0.345223
0.345816
0.346549
0.347344
0.348035
0.348221
0.348157
0.34795
0.347604
0.347155
0.346575
0.346035
0.345721
0.345418
0.343747
0.32855
0.242137
0.11837
0.0970654
0.096886
0.096886
0.096886
0.096886
0.096886
0.096886
0.096886
0.096886
0.096886
0.096886
0.096886
0.096886
0.096886
0.096886
0.096886
0.754052
0.753983
0.75358
0.752394
0.749653
0.744006
0.733263
0.714366
0.683843
0.638967
0.579521
0.509699
0.439372
0.381614
0.348697
0.34104
0.340769
0.340836
0.341225
0.342227
0.344029
0.3466
0.349063
0.349733
0.349721
0.349513
0.349022
0.348205
0.347108
0.345822
0.34485
0.344661
0.344694
0.344854
0.345223
0.345816
0.346549
0.347344
0.348035
0.348221
0.348157
0.34795
0.347604
0.347155
0.346575
0.346035
0.345721
0.345418
0.343747
0.32855
0.242137
0.11837
0.0970654
0.096886
0.096886
0.096886
0.096886
0.096886
0.096886
0.096886
0.096886
0.096886
0.096886
0.096886
0.096886
0.096886
0.096886
0.096886
0.754052
0.753983
0.75358
0.752394
0.749653
0.744006
0.733263
0.714366
0.683843
0.638967
0.579521
0.509699
0.439372
0.381614
0.348697
0.34104
0.340769
0.340836
0.341225
0.342227
0.344029
0.3466
0.349063
0.349733
0.349721
0.349513
0.349022
0.348205
0.347108
0.345822
0.34485
0.344661
0.344694
0.344854
0.345223
0.345816
0.346549
0.347344
0.348035
0.348221
0.348157
0.34795
0.347604
0.347155
0.346575
0.346035
0.345721
0.345418
0.343747
0.32855
0.242137
0.11837
0.0970654
0.096886
0.096886
0.096886
0.096886
0.096886
0.096886
0.096886
0.096886
0.096886
0.096886
0.096886
0.096886
0.096886
0.096886
0.096886
0.754052
0.753983
0.75358
0.752394
0.749653
0.744006
0.733263
0.714366
0.683843
0.638967
0.579521
0.509699
0.439372
0.381614
0.348697