/*--------------------------------*- C++ -*----------------------------------*\
| =========                 |                                                 |
| \\      /  F ield         | OpenFOAM: The Open Source CFD Toolbox           |
|  \\    /   O peration     | Version:  2306                                  |
|   \\  /    A nd           | Website:  www.openfoam.com                      |
|    \\/     M anipulation  |                                                 |
\*---------------------------------------------------------------------------*/
FoamFile
{
    version     2.0;
    format      ascii;
    arch        "LSB;label=32;scalar=64";
    class       volScalarField;
    location    "1e-05";
    object      T;
}
// * * * * * * * * * * * * * * * * * * * * * * * * * * * * * * * * * * * * * //

dimensions      [0 0 0 1 0 0 0];

internalField   nonuniform List<scalar> 
9032
(
282.845
292.082
306.019
325.341
351.081
384.994
428.266
477.11
517.625
533.453
534.332
532.961
528.926
523.607
517.885
512.73
508.88
506.491
505.533
505.327
505.246
505.202
505.119
504.747
503.961
502.803
500.988
498.432
496.226
495.084
494.174
493.702
493.549
493.558
493.807
494.691
496.811
499.363
499.669
500.353
503.667
504.65
506.346
510.877
519.819
532.966
544.421
547.132
546.791
546.1
544.354
540.643
540.292
540.532
540.931
533.188
465.533
260.125
180.597
180
180
180
180
180
180
180
180
180
276.683
284.661
297.233
315.548
341.279
376.412
421.876
473.015
514.435
531.095
532.423
531.352
527.662
522.401
516.611
511.279
507.283
504.986
504.164
503.991
503.925
503.863
503.7
503.22
502.434
501.275
499.406
496.896
494.853
493.704
492.696
492.03
491.87
492.179
492.781
493.618
494.307
495.311
496.365
497.607
499.743
500.667
502.973
508.654
518.793
532.706
543.931
547.163
547.065
546.058
544.196
542.515
541.55
540.062
534.373
508.944
409.549
208.65
180.072
180
180
180
180
180
180
180
180
180
268.719
274.722
285.297
302.074
327.148
362.814
409.928
463.363
507.749
527.475
529.657
528.865
525.882
521.037
515.416
510.081
505.891
503.512
502.619
502.547
502.612
502.701
502.694
502.459
501.831
500.643
498.739
496.544
494.996
493.935
492.881
491.848
490.956
490.726
490.869
491.042
491.224
491.792
492.625
493.844
496.512
498.112
501.295
507.973
519.007
532.916
543.643
547.237
547.54
546.876
544.65
543.968
542.942
540.408
535.02
503.755
361.437
187.409
180.004
180
180
180
180
180
180
180
180
180
259.58
263.262
271.208
285.477
308.591
343.169
390.354
446.034
495.82
521.87
526.549
526.149
524.035
519.838
514.538
509.243
504.777
501.917
500.673
500.423
500.499
500.746
500.925
500.891
500.409
498.936
496.56
494.911
493.922
492.871
491.805
490.629
489.429
488.803
488.727
488.604
488.514
488.546
488.91
489.879
492.426
494.468
498.352
506.143
518.578
532.945
543.473
547.478
547.994
547.384
546.063
545.43
544.112
540.948
530.701
474.63
278.922
181.017
180
180
180
180
180
180
180
180
180
180
254.208
256.392
262.137
273.633
293.614
325.053
369.792
425.667
479.903
513.759
523.406
523.571
522.361
519.156
514.373
509.117
504.457
501.03
499.265
498.636
498.569
498.752
498.811
498.608
497.827
496.101
494.066
493.038
492.237
491.409
490.539
489.524
488.4
487.403
487.083
487.311
487.328
486.601
486.414
486.864
488.513
490.483
495.003
504.502
518.288
532.522
543.081
547.395
547.797
547.829
547.364
545.913
543.921
540.758
524.071
431.159
215.617
180.092
180
180
180
180
180
180
180
180
180
180
251.183
252.549
256.778
265.993
282.816
310.243
350.804
404.239
461.611
503.549
520.041
521.719
521.079
518.715
514.471
509.445
504.742
500.872
498.488
497.575
497.075
497.054
496.967
496.472
495.115
492.971
491.606
491.031
490.482
489.951
489.413
488.857
488.163
487.082
486.317
486.827
486.983
485.392
484.949
485.14
485.452
486.857
491.331
501.681
516.319
530.245
541.426
547.263
547.874
547.677
547.129
545.845
544.25
538.446
504.071
358.95
187.022
180.004
180
180
180
180
180
180
180
180
180
180
249.145
249.93
253.038
260.395
274.461
298.205
334.556
384.633
442.942
491.955
516.129
520.39
520.121
518.356
514.661
510.037
505.355
501.177
498.322
496.944
495.977
495.64
495.368
494.668
493.104
491.037
489.962
489.509
489.059
488.64
488.379
488.316
488.137
487.497
486.669
486.498
486.191
484.522
484.134
483.714
483.09
483.914
487.56
497.499
512.095
525.973
539.02
546.577
547.916
547.826
547.243
546.134
544.104
533.668
474.293
277.748
180.972
180
180
180
180
180
180
180
180
180
180
180
247.381
247.797
249.938
255.766
267.526
288.002
320.404
366.927
424.608
478.825
510.978
519.227
519.341
517.969
514.761
510.604
506.12
501.747
498.517
496.582
494.964
494.214
493.678
492.768
491.162
489.668
489.134
488.838
488.422
487.89
487.553
487.587
487.705
487.761
487.331
486.141
484.986
483.844
483.02
482.283
481.438
481.802
484.423
492.6
505.213
518.905
534.158
545.109
547.887
547.952
547.457
546.614
543.087
522.758
424.605
211.565
180.072
180
180
180
180
180
180
180
180
180
180
180
245.71
245.855
247.273
251.804
261.605
279.201
307.87
350.539
406.21
464.06
504.352
517.591
518.225
517.095
514.496
510.866
506.749
502.419
499.019
496.451
494.097
492.756
491.676
490.369
488.947
488.211
488.178
488.182
488.022
487.62
487.167
486.787
486.77
487.278
487.346
485.782
484.106
483.073
481.805
481.013
480.361
480.364
481.9
486.903
496.72
510.962
527.629
542.702
548.098
548.426
548.05
547.035
541.183
505.077
354.247
186.086
180.003
180
180
180
180
180
180
180
180
180
180
180
243.951
243.892
244.82
248.328
256.508
271.624
296.837
335.453
388.034
447.463
495.171
514.983
516.494
515.605
513.77
510.773
507.043
503.015
499.587
496.46
493.632
491.679
489.849
487.874
486.757
486.641
486.766
487.158
487.48
487.496
487.122
486.318
485.754
485.874
486.081
485.196
483.656
482.438
481.064
479.832
479.508
479.433
479.963
482.49
489.421
501.095
517.171
535.407
546.839
548.599
548.58
547.412
536.764
471.317
265.395
180.67
180
180
180
180
180
180
180
180
180
180
180
180
242.297
242.009
242.635
245.37
252.1
265.042
287.136
321.715
370.534
429.748
483.301
510.653
514.278
513.767
512.672
510.322
507.021
503.348
499.805
496.306
493.166
490.76
488.42
486.326
485.421
485.228
485.296
485.755
486.476
486.953
486.819
486.238
485.392
484.538
484.078
483.91
483.103
481.885
480.689
479.447
478.88
478.58
478.49
479.36
482.845
490.778
506.259
528.463
544.673
548.685
549.423
548.113
527.968
416.041
203.046
180.037
180
180
180
180
180
180
180
180
180
180
180
180
240.689
240.245
240.693
242.851
248.366
259.391
278.591
309.277
354.104
411.756
469.259
503.645
511.772
511.946
511.373
509.558
506.736
503.365
499.56
495.463
491.902
489.116
486.87
485.496
484.834
484.436
484.347
484.5
485.054
485.736
485.994
485.992
485.392
484.04
482.76
482.069
481.925
481.268
480.209
479.328
478.506
477.925
477.25
476.893
478.198
483.164
494.998
516.784
538.324
547.88
549.829
547.154
506.144
329.64
183.223
180.001
180
180
180
180
180
180
180
180
180
180
180
180
238.786
238.3
238.661
240.463
245.074
254.486
271.136
298.201
338.966
393.865
453.37
494.506
508.768
510.428
510.075
508.773
506.349
503.059
498.804
494.07
489.896
486.621
484.821
484.329
484.147
484.046
483.967
483.925
483.998
484.287
484.725
485.07
484.862
483.834
482.296
481.004
480.304
480.137
479.548
478.819
478.049
477.145
476.186
475.371
475.732
478.177
486.308
506.199
530.176
544.165
548.485
542.222
463.393
236.684
180.234
180
180
180
180
180
180
180
180
180
180
180
180
180
236.613
236.353
236.611
238.121
242.03
250.049
264.567
288.456
325.329
376.756
436.614
483.331
504.781
508.828
508.776
507.993
505.96
502.531
497.812
492.722
487.967
484.433
482.877
482.484
482.578
482.953
483.357
483.588
483.592
483.496
483.443
483.458
483.493
483.176
482.06
480.562
479.388
478.791
478.418
477.905
477.315
476.666
475.877
475.197
475.106
475.812
480.524
496.361
519.61
536.509
542.813
525.676
384.183
189.52
180.006
180
180
180
180
180
180
180
180
180
180
180
180
180
233.56
234.108
234.392
235.712
239.064
245.892
258.506
279.702
312.951
360.482
419.243
471.478
499.568
507.048
507.464
506.955
505.051
501.383
496.488
491.306
486.654
483.267
481.444
480.693
480.66
481.211
482.147
482.894
483.207
483.147
482.751
482.205
481.738
481.566
481.275
480.224
478.944
477.913
477.253
476.981
476.907
476.858
476.487
475.623
475.619
476.491
479.23
490.085
508.44
524.167
530.747
486.518
271.22
180.693
180
180
180
180
180
180
180
180
180
180
180
180
180
180
227.159
231.192
232.129
233.307
236.171
241.987
252.845
271.609
301.463
345.125
401.939
458.112
492.833
504.586
505.649
505.223
503.319
499.495
494.551
489.637
485.641
482.819
480.972
479.851
479.399
479.602
480.458
481.563
482.398
482.621
482.406
481.609
480.618
479.829
479.568
479.425
478.567
477.383
476.653
476.614
476.947
477.337
477.723
477.981
478.624
479.488
481.72
488.636
498.994
506.535
502.365
399.828
194.854
180.015
180
180
180
180
180
180
180
180
180
180
180
180
180
180
212.365
225.692
229.44
230.991
233.523
238.455
247.782
264.264
290.976
330.884
384.821
443.513
485.864
501.686
503.382
502.847
500.609
496.629
492.072
487.885
484.379
481.817
480.442
479.822
479.256
479.073
479.235
479.881
480.842
481.625
481.762
481.4
480.303
479.07
478.149
477.841
477.735
477.185
476.821
476.852
477.277
478.436
479.89
481.379
482.577
483.35
484.344
487.73
487.891
482.149
441.935
271.949
180.945
180
180
180
180
180
180
180
180
180
180
180
180
180
180
180
199.048
212.568
224.53
228.385
231.161
235.507
243.525
257.944
281.785
318.213
369.01
428.334
477.727
498.577
500.726
499.978
497.452
493.764
489.948
486.267
482.901
480.209
478.993
479.05
479.249
479.126
479.112
479.04
479.352
479.912
480.517
480.644
480.234
479.053
477.609
476.691
476.64
477.088
477.313
477.405
478.011
479.263
480.69
481.799
482.695
483.254
482.771
479.109
468.692
444.182
371.786
214.024
180.144
180
180
180
180
180
180
180
180
180
180
180
180
180
180
180
195.317
199.565
212.561
223.578
228.324
232.892
240.038
252.658
273.922
307.13
354.708
413.552
468.017
494.67
497.558
496.572
494.214
491.414
488.457
485.226
481.944
478.898
477.449
477.554
478.192
478.439
478.765
478.998
478.738
478.649
478.794
479.134
479.405
478.978
477.885
476.497
476.005
476.424
477.213
477.433
477.778
478.655
479.889
480.216
479.601
476.321
468.206
454.635
438.571
416.3
354.17
215.188
180.205
180
180
180
180
180
180
180
180
180
180
180
180
180
180
180
194.941
195.45
199.778
212.357
223.027
229.59
236.752
248.023
267.017
297.261
341.747
399.334
456.788
489.15
493.554
492.793
491.387
489.525
487.221
484.664
481.73
478.704
476.538
475.983
476.219
476.837
477.469
478.103
478.459
478.197
477.719
477.513
477.72
478.249
478.078
477.029
475.752
475.524
476.43
477.055
476.742
475.609
473.536
469.525
462.145
450.851
438.033
428.88
423.483
413.141
361.849
222.997
180.304
180
180
180
180
180
180
180
180
180
180
180
180
180
180
180
194.905
194.953
195.563
199.801
212.149
223.226
232.493
243.504
260.824
288.399
329.736
385.465
444.427
481.297
489.656
489.67
489.041
487.65
485.938
483.907
481.452
479.007
477.173
475.362
474.602
474.595
475.148
476.307
477.27
477.653
477.332
476.542
476.128
476.384
477.212
477.228
476.121
474.233
473.273
472.519
470.271
465.159
456.654
445.771
435.14
428.005
425.119
424.121
422.675
414.383
364.957
225.165
180.331
180
180
180
180
180
180
180
180
180
180
180
180
180
180
180
194.927
194.949
195.06
195.831
199.996
212.076
224.792
238.13
254.891
280.195
318.446
371.816
430.999
471.724
486.071
487.122
486.711
485.695
484.464
482.725
480.439
478.255
476.873
475.301
473.992
473.184
473.141
473.675
475.021
476.484
477.046
476.892
475.407
474.118
473.705
473.825
472.691
469.8
464.827
457.31
448.353
439.245
431.647
427.113
425.305
424.743
424.501
424.167
422.967
414.842
365.379
225.352
180.332
180
180
180
180
180
180
180
180
180
180
180
180
180
180
180
194.937
194.963
195.096
195.343
196.379
200.776
213.121
228.868
247.837
272.17
307.8
358.439
417.33
462.308
482.498
485.025
484.818
484.123
483.031
481.279
478.894
476.622
475.175
474.29
473.478
473.137
472.455
471.879
472.289
473.308
474.554
474.746
474.072
471.775
467.402
462.25
456.415
449.22
440.846
433.116
427.938
425.645
425.087
425.008
424.953
424.803
424.601
424.299
423.095
414.905
365.388
225.328
180.332
180
180
180
180
180
180
180
180
180
180
180
180
180
180
180
194.936
194.971
195.104
195.389
196.126
197.716
202.717
216.143
236.704
263.276
297.292
345.265
404.078
453.186
478.719
483.339
483.417
483.197
482.231
480.227
477.402
474.471
472.243
471.268
471.102
471.084
471.255
471.371
470.268
468.621
467.266
465.365
462.055
456.59
449.367
441.351
433.902
428.478
425.569
424.529
424.402
424.569
424.882
425.025
425.001
424.858
424.655
424.335
423.111
414.904
365.374
225.315
180.332
180
180
180
180
180
180
180
180
180
180
180
180
180
180
180
194.936
194.974
195.1
195.425
196.159
197.709
200.608
207.038
223.012
250.221
285.604
331.875
390.233
443.741
473.974
480.877
481.226
481.205
480.725
479.273
476.663
473.233
469.422
466.706
465.243
464.47
463.867
462.694
460.532
457.286
452.584
446.487
439.826
433.773
429.139
426.066
424.454
423.958
423.972
424.107
424.294
424.589
424.915
425.052
425.026
424.874
424.661
424.336
423.11
414.902
365.371
225.313
180.332
180
180
180
180
180
180
180
180
180
180
180
180
180
180
180
194.936
194.974
195.099
195.424
196.168
197.706
200.643
205.996
215.879
235.65
269.504
316.405
374.494
431.815
466.315
475.187
475.602
475.341
474.347
472.255
469.086
465.377
461.105
457.373
453.985
450.303
446.229
442.211
438.496
434.813
431.233
428.266
426.382
425.385
424.801
424.298
423.876
423.812
423.927
424.115
424.305
424.602
424.926
425.058
425.029
424.874
424.661
424.336
423.109
414.902
365.371
225.312
180.332
180
180
180
180
180
180
180
180
180
180
180
180
180
180
180
194.936
194.974
195.099
195.424
196.168
197.707
200.668
206.039
215.324
230.848
257.024
298.519
354.502
412.919
449.722
459.401
459.746
459.042
457.144
453.87
449.337
444.22
439.315
435.153
431.832
429.062
426.884
425.579
425.111
425.069
425.135
425.087
425.031
424.907
424.661
424.267
423.878
423.817
423.931
424.12
424.31
424.604
424.927
425.058
425.029
424.874
424.661
424.336
423.109
414.902
365.371
225.313
180.332
180
180
180
180
180
180
180
180
180
180
180
180
180
180
180
194.936
194.974
195.099
195.424
196.168
197.707
200.67
206.05
215.34
230.637
254.643
290.575
339.866
393.596
428.666
438.028
438.34
437.82
436.508
434.334
431.234
427.767
424.83
423.164
422.482
422.267
422.328
422.733
423.512
424.372
424.908
425.025
425.008
424.902
424.661
424.268
423.88
423.819
423.933
424.12
424.31
424.604
424.927
425.058
425.029
424.874
424.661
424.336
423.109
414.902
365.371
225.313
180.332
180
180
180
180
180
180
180
180
180
180
180
180
180
180
180
194.936
194.974
195.099
195.424
196.168
197.707
200.67
206.05
215.344
230.642
254.583
289.859
337.157
388.199
421.655
430.873
431.485
431.367
430.897
429.738
427.667
425.061
422.993
422.002
421.874
421.919
422.147
422.671
423.494
424.368
424.908
425.025
425.008
424.902
424.662
424.269
423.88
423.819
423.933
424.12
424.31
424.604
424.927
425.058
425.029
424.874
424.661
424.336
423.109
414.902
365.371
225.313
180.332
180
180
180
180
180
180
180
180
180
180
180
180
180
180
180
194.936
194.974
195.099
195.424
196.168
197.707
200.67
206.05
215.344
230.643
254.584
289.85
337.074
387.95
421.28
430.497
431.142
431.068
430.666
429.578
427.565
425.001
422.965
421.987
421.869
421.916
422.146
422.67
423.494
424.368
424.908
425.025
425.008
424.902
424.662
424.269
423.88
423.819
423.933
424.12
424.31
424.604
424.927
425.058
425.029
424.874
424.661
424.336
423.109
414.902
365.371
225.313
180.332
180
180
180
180
180
180
180
180
180
180
180
180
180
180
180
194.936
194.974
195.099
195.424
196.168
197.707
200.67
206.05
215.344
230.643
254.584
289.85
337.074
387.949
421.278
430.495
431.14
431.066
430.665
429.577
427.565
425.001
422.965
421.987
421.869
421.916
422.146
422.67
423.494
424.368
424.908
425.025
425.008
424.902
424.662
424.269
423.88
423.819
423.933
424.12
424.31
424.604
424.927
425.058
425.029
424.874
424.661
424.336
423.109
414.902
365.371
225.313
180.332
180
180
180
180
180
180
180
180
180
180
180
180
180
180
180
194.936
194.974
195.099
195.424
196.168
197.707
200.67
206.05
215.344
230.643
254.584
289.85
337.074
387.949
421.278
430.495
431.14
431.066
430.665
429.577
427.565
425.001
422.965
421.987
421.869
421.916
422.146
422.67
423.494
424.368
424.908
425.025
425.008
424.902
424.662
424.269
423.88
423.819
423.933
424.12
424.31
424.604
424.927
425.058
425.029
424.874
424.661
424.336
423.109
414.902
365.371
225.313
180.332
180
180
180
180
180
180
180
180
180
180
180
180
180
180
180
194.936
194.974
195.099
195.424
196.168
197.707
200.67
206.05
215.344
230.643
254.584
289.85
337.074
387.949
421.278
430.495
431.14
431.066
430.665
429.577
427.565
425.001
422.965
421.987
421.869
421.916
422.146
422.67
423.494
424.368
424.908
425.025
425.008
424.902
424.662
424.269
423.88
423.819
423.933
424.12
424.31
424.604
424.927
425.058
425.029
424.874
424.661
424.336
423.109
414.902
365.371
225.313
180.332
180
180
180
180
180
180
180
180
180
180
180
180
180
180
180
194.936
194.974
195.099
195.424
196.168
197.707
200.67
206.05
215.344
230.643
254.584
289.85
337.074
387.949
421.278
430.495
431.14
431.066
430.665
429.577
427.565
425.001
422.965
421.987
421.869
421.916
422.146
422.67
423.494
424.368
424.908
425.025
425.008
424.902
424.662
424.269
423.88
423.819
423.933
424.12
424.31
424.604
424.927
425.058
425.029
424.874
424.661
424.336
423.109
414.902
365.371
225.313
180.332
180
180
180
180
180
180
180
180
180
180
180
180
180
180
180
194.936
194.974
195.099
195.424
196.168
197.707
200.67
206.05
215.344
230.643
254.584
289.85
337.074
387.949
421.278
430.495
431.14
431.066
430.665
429.577
427.565
425.001
422.965
421.987
421.869
421.916
422.146
422.67
423.494
424.368
424.908
425.025
425.008
424.902
424.662
424.269
423.88
423.819
423.933
424.12
424.31
424.604
424.927
425.058
425.029
424.874
424.661
424.336
423.109
414.902
365.371
225.313
180.332
180
180
180
180
180
180
180
180
180
180
180
180
180
180
180
194.936
194.974
195.099
195.424
196.168
197.707
200.67
206.05
215.344
230.643
254.584
289.85
337.074
387.949
421.278
430.495
431.14
431.066
430.665
429.577
427.565
425.001
422.965
421.987
421.869
421.916
422.146
422.67
423.494
424.368
424.908
425.025
425.008
424.902
424.662
424.269
423.88
423.819
423.933
424.12
424.31
424.604
424.927
425.058
425.029
424.874
424.661
424.336
423.109
414.902
365.371
225.313
180.332
180
180
180
180
180
180
180
180
180
180
180
180
180
180
180
194.936
194.974
195.099
195.424
196.168
197.707
200.67
206.05
215.344
230.643
254.584
289.85
337.074
387.949
421.278
430.495
431.14
431.066
430.665
429.577
427.565
425.001
422.965
421.987
421.869
421.916
422.146
422.67
423.494
424.368
424.908
425.025
425.008
424.902
424.662
424.269
423.88
423.819
423.933
424.12
424.31
424.604
424.927
425.058
425.029
424.874
424.661
424.336
423.109
414.902
365.371
225.313
180.332
180
180
180
180
180
180
180
180
180
180
180
180
180
180
180
194.936
194.974
195.099
195.424
196.168
197.707
200.67
206.05
215.344
230.643
254.584
289.85
337.074
387.949
421.278
430.495
431.14
431.066
430.665
429.577
427.565
425.001
422.965
421.987
421.869
421.916
422.146
422.67
423.494
424.368
424.908
425.025
425.008
424.902
424.662
424.269
423.88
423.819
423.933
424.12
424.31
424.604
424.927
425.058
425.029
424.874
424.661
424.336
423.109
414.902
365.371
225.313
180.332
180
180
180
180
180
180
180
180
180
180
180
180
180
180
180
194.936
194.974
195.099
195.424
196.168
197.707
200.67
206.05
215.344
230.643
254.584
289.85
337.074
387.949
421.278
430.495
431.14
431.066
430.665
429.577
427.565
425.001
422.965
421.987
421.869
421.916
422.146
422.67
423.494
424.368
424.908
425.025
425.008
424.902
424.662
424.269
423.88
423.819
423.933
424.12
424.31
424.604
424.927
425.058
425.029
424.874
424.661
424.336
423.109
414.902
365.371
225.313
180.332
180
180
180
180
180
180
180
180
180
180
180
180
180
180
180
194.936
194.974
195.099
195.424
196.168
197.707
200.67
206.05
215.344
230.643
254.584
289.85
337.074
387.949
421.278
430.495
431.14
431.066
430.665
429.577
427.565
425.001
422.965
421.987
421.869
421.916
422.146
422.67
423.494
424.368
424.908
425.025
425.008
424.902
424.662
424.269
423.88
423.819
423.933
424.12
424.31
424.604
424.927
425.058
425.029
424.874
424.661
424.336
423.109
414.902
365.371
225.313
180.332
180
180
180
180
180
180
180
180
180
180
180
180
180
180
180
194.936
194.974
195.099
195.424
196.168
197.707
200.67
206.05
215.344
230.643
254.584
289.85
337.074
387.949
421.278
430.495
431.14
431.066
430.665
429.577
427.565
425.001
422.965
421.987
421.869
421.916
422.146
422.67
423.494
424.368
424.908
425.025
425.008
424.902
424.662
424.269
423.88
423.819
423.933
424.12
424.31
424.604
424.927
425.058
425.029
424.874
424.661
424.336
423.109
414.902
365.371
225.313
180.332
180
180
180
180
180
180
180
180
180
180
180
180
180
180
180
194.936
194.974
195.099
195.424
196.168
197.707
200.67
206.05
215.344
230.643
254.584
289.85
337.074
387.949
421.278
430.495
431.14
431.066
430.665
429.577
427.565
425.001
422.965
421.987
421.869
421.916
422.146
422.67
423.494
424.368
424.908
425.025
425.008
424.902
424.662
424.269
423.88
423.819
423.933
424.12
424.31
424.604
424.927
425.058
425.029
424.874
424.661
424.336
423.109
414.902
365.371
225.313
180.332
180
180
180
180
180
180
180
180
180
180
180
180
180
180
180
194.936
194.974
195.099
195.424
196.168
197.707
200.67
206.05
215.344
230.643
254.584
289.85
337.074
387.949
421.278
430.495
431.14
431.066
430.665
429.577
427.565
425.001
422.965
421.987
421.869
421.916
422.146
422.67
423.494
424.368
424.908
425.025
425.008
424.902
424.662
424.269
423.88
423.819
423.933
424.12
424.31
424.604
424.927
425.058
425.029
424.874
424.661
424.336
423.109
414.902
365.371
225.313
180.332
180
180
180
180
180
180
180
180
180
180
180
180
180
180
180
194.936
194.974
195.099
195.424
196.168
197.707
200.67
206.05
215.344
230.643
254.584
289.85
337.074
387.949
421.278
430.495
431.14
431.066
430.665
429.577
427.565
425.001
422.965
421.987
421.869
421.916
422.146
422.67
423.494
424.368
424.908
425.025
425.008
424.902
424.662
424.269
423.88
423.819
423.933
424.12
424.31
424.604
424.927
425.058
425.029
424.874
424.661
424.336
423.109
414.902
365.371
225.313
180.332
180
180
180
180
180
180
180
180
180
180
180
180
180
180
180
194.936
194.974
195.099
195.424
196.168
197.707
200.67
206.05
215.344
230.643
254.584
289.85
337.074
387.949
421.278
430.495
431.14
431.066
430.665
429.577
427.565
425.001
422.965
421.987
421.869
421.916
422.146
422.67
423.494
424.368
424.908
425.025
425.008
424.902
424.662
424.269
423.88
423.819
423.933
424.12
424.31
424.604
424.927
425.058
425.029
424.874
424.661
424.336
423.109
414.902
365.371
225.313
180.332
180
180
180
180
180
180
180
180
180
180
180
180
180
180
180
194.936
194.974
195.099
195.424
196.168
197.707
200.67
206.05
215.344
230.643
254.584
289.85
337.074
387.949
421.278
430.495
431.14
431.066
430.665
429.577
427.565
425.001
422.965
421.987
421.869
421.916
422.146
422.67
423.494
424.368
424.908
425.025
425.008
424.902
424.662
424.269
423.88
423.819
423.933
424.12
424.31
424.604
424.927
425.058
425.029
424.874
424.661
424.336
423.109
414.902
365.371
225.313
180.332
180
180
180
180
180
180
180
180
180
180
180
180
180
180
180
194.936
194.974
195.099
195.424
196.168
197.707
200.67
206.05
215.344
230.643
254.584
289.85
337.074
387.949
421.278
430.495
431.14
431.066
430.665
429.577
427.565
425.001
422.965
421.987
421.869
421.916
422.146
422.67
423.494
424.368
424.908
425.025
425.008
424.902
424.662
424.269
423.88
423.819
423.933
424.12
424.31
424.604
424.927
425.058
425.029
424.874
424.661
424.336
423.109
414.902
365.371
225.313
180.332
180
180
180
180
180
180
180
180
180
180
180
180
180
180
180
194.936
194.974
195.099
195.424
196.168
197.707
200.67
206.05
215.344
230.643
254.584
289.85
337.074
387.949
421.278
430.495
431.14
431.066
430.665
429.577
427.565
425.001
422.965
421.987
421.869
421.916
422.146
422.67
423.494
424.368
424.908
425.025
425.008
424.902
424.662
424.269
423.88
423.819
423.933
424.12
424.31
424.604
424.927
425.058
425.029
424.874
424.661
424.336
423.109
414.902
365.371
225.313
180.332
180
180
180
180
180
180
180
180
180
180
180
180
180
180
180
194.936
194.974
195.099
195.424
196.168
197.707
200.67
206.05
215.344
230.643
254.584
289.85
337.074
387.949
421.278
430.495
431.14
431.066
430.665
429.577
427.565
425.001
422.965
421.987
421.869
421.916
422.146
422.67
423.494
424.368
424.908
425.025
425.008
424.902
424.662
424.269
423.88
423.819
423.933
424.12
424.31
424.604
424.927
425.058
425.029
424.874
424.661
424.336
423.109
414.902
365.371
225.313
180.332
180
180
180
180
180
180
180
180
180
180
180
180
180
180
180
194.936
194.974
195.099
195.424
196.168
197.707
200.67
206.05
215.344
230.643
254.584
289.85
337.074
387.949
421.278
430.495
431.14
431.066
430.665
429.577
427.565
425.001
422.965
421.987
421.869
421.916
422.146
422.67
423.494
424.368
424.908
425.025
425.008
424.902
424.662
424.269
423.88
423.819
423.933
424.12
424.31
424.604
424.927
425.058
425.029
424.874
424.661
424.336
423.109
414.902
365.371
225.313
180.332
180
180
180
180
180
180
180
180
180
180
180
180
180
180
180
194.936
194.974
195.099
195.424
196.168
197.707
200.67
206.05
215.344
230.643
254.584
289.85
337.074
387.949
421.278
430.495
431.14
431.066
430.665
429.577
427.565
425.001
422.965
421.987
421.869
421.916
422.146
422.67
423.494
424.368
424.908
425.025
425.008
424.902
424.662
424.269
423.88
423.819
423.933
424.12
424.31
424.604
424.927
425.058
425.029
424.874
424.661
424.336
423.109
414.902
365.371
225.313
180.332
180
180
180
180
180
180
180
180
180
180
180
180
180
180
180
194.936
194.974
195.099
195.424
196.168
197.707
200.67
206.05
215.344
230.643
254.584
289.85
337.074
387.949
421.278
430.495
431.14
431.066
430.665
429.577
427.565
425.001
422.965
421.987
421.869
421.916
422.146
422.67
423.494
424.368
424.908
425.025
425.008
424.902
424.662
424.269
423.88
423.819
423.933
424.12
424.31
424.604
424.927
425.058
425.029
424.874
424.661
424.336
423.109
414.902
365.371
225.313
180.332
180
180
180
180
180
180
180
180
180
180
180
180
180
180
180
194.936
194.974
195.099
195.424
196.168
197.707
200.67
206.05
215.344
230.643
254.584
289.85
337.074
387.949
421.278
430.495
431.14
431.066
430.665
429.577
427.565
425.001
422.965
421.987
421.869
421.916
422.146
422.67
423.494
424.368
424.908
425.025
425.008
424.902
424.662
424.269
423.88
423.819
423.933
424.12
424.31
424.604
424.927
425.058
425.029
424.874
424.661
424.336
423.109
414.902
365.371
225.313
180.332
180
180
180
180
180
180
180
180
180
180
180
180
180
180
180
194.936
194.974
195.099
195.424
196.168
197.707
200.67
206.05
215.344
230.643
254.584
289.85
337.074
387.949
421.278
430.495
431.14
431.066
430.665
429.577
427.565
425.001
422.965
421.987
421.869
421.916
422.146
422.67
423.494
424.368
424.908
425.025
425.008
424.902
424.662
424.269
423.88
423.819
423.933
424.12
424.31
424.604
424.927
425.058
425.029
424.874
424.661
424.336
423.109
414.902
365.371
225.313
180.332
180
180
180
180
180
180
180
180
180
180
180
180
180
180
180
194.936
194.974
195.099
195.424
196.168
197.707
200.67
206.05
215.344
230.643
254.584
289.85
337.074
387.949
421.278
430.495
431.14
431.066
430.665
429.577
427.565
425.001
422.965
421.987
421.869
421.916
422.146
422.67
423.494
424.368
424.908
425.025
425.008
424.902
424.662
424.269
423.88
423.819
423.933
424.12
424.31
424.604
424.927
425.058
425.029
424.874
424.661
424.336
423.109
414.902
365.371
225.313
180.332
180
180
180
180
180
180
180
180
180
180
180
180
180
180
180
194.936
194.974
195.099
195.424
196.168
197.707
200.67
206.05
215.344
230.643
254.584
289.85
337.074
387.949
421.278
430.495
431.14
431.066
430.665
429.577
427.565
425.001
422.965
421.987
421.869
421.916
422.146
422.67
423.494
424.368
424.908
425.025
425.008
424.902
424.662
424.269
423.88
423.819
423.933
424.12
424.31
424.604
424.927
425.058
425.029
424.874
424.661
424.336
423.109
414.902
365.371
225.313
180.332
180
180
180
180
180
180
180
180
180
180
180
180
180
180
180
194.936
194.974
195.099
195.424
196.168
197.707
200.67
206.05
215.344
230.643
254.584
289.85
337.074
387.949
421.278
430.495
431.14
431.066
430.665
429.577
427.565
425.001
422.965
421.987
421.869
421.916
422.146
422.67
423.494
424.368
424.908
425.025
425.008
424.902
424.662
424.269
423.88
423.819
423.933
424.12
424.31
424.604
424.927
425.058
425.029
424.874
424.661
424.336
423.109
414.902
365.371
225.313
180.332
180
180
180
180
180
180
180
180
180
180
180
180
180
180
180
194.936
194.974
195.099
195.424
196.168
197.707
200.67
206.05
215.344
230.643
254.584
289.85
337.074
387.949
421.278
430.495
431.14
431.066
430.665
429.577
427.565
425.001
422.965
421.987
421.869
421.916
422.146
422.67
423.494
424.368
424.908
425.025
425.008
424.902
424.662
424.269
423.88
423.819
423.933
424.12
424.31
424.604
424.927
425.058
425.029
424.874
424.661
424.336
423.109
414.902
365.371
225.313
180.332
180
180
180
180
180
180
180
180
180
180
180
180
180
180
180
194.936
194.974
195.099
195.424
196.168
197.707
200.67
206.05
215.344
230.643
254.584
289.85
337.074
387.949
421.278
430.495
431.14
431.066
430.665
429.577
427.565
425.001
422.965
421.987
421.869
421.916
422.146
422.67
423.494
424.368
424.908
425.025
425.008
424.902
424.662
424.269
423.88
423.819
423.933
424.12
424.31
424.604
424.927
425.058
425.029
424.874
424.661
424.336
423.109
414.902
365.371
225.313
180.332
180
180
180
180
180
180
180
180
180
180
180
180
180
180
180
194.936
194.974
195.099
195.424
196.168
197.707
200.67
206.05
215.344
230.643
254.584
289.85
337.074
387.949
421.278
430.495
431.14
431.066
430.665
429.577
427.565
425.001
422.965
421.987
421.869
421.916
422.146
422.67
423.494
424.368
424.908
425.025
425.008
424.902
424.662
424.269
423.88
423.819
423.933
424.12
424.31
424.604
424.927
425.058
425.029
424.874
424.661
424.336
423.109
414.902
365.371
225.313
180.332
180
180
180
180
180
180
180
180
180
180
180
180
180
180
180
194.936
194.974
195.099
195.424
196.168
197.707
200.67
206.05
215.344
230.643
254.584
289.85
337.074
387.949
421.278
430.495
431.14
431.066
430.665
429.577
427.565
425.001
422.965
421.987
421.869
421.916
422.146
422.67
423.494