/*--------------------------------*- C++ -*----------------------------------*\
| =========                 |                                                 |
| \\      /  F ield         | OpenFOAM: The Open Source CFD Toolbox           |
|  \\    /   O peration     | Version:  2306                                  |
|   \\  /    A nd           | Website:  www.openfoam.com                      |
|    \\/     M anipulation  |                                                 |
\*---------------------------------------------------------------------------*/
FoamFile
{
    version     2.0;
    format      ascii;
    arch        "LSB;label=32;scalar=64";
    class       volVectorField;
    location    "1e-05";
    object      U;
}
// * * * * * * * * * * * * * * * * * * * * * * * * * * * * * * * * * * * * * //

dimensions      [0 1 -1 0 0 0 0];

internalField   nonuniform List<vector> 
9032
(
(379.586 150.717 0)
(393.59 155.186 0)
(409.857 159.875 0)
(427.967 165.579 0)
(446.643 173.421 0)
(463.445 183.418 0)
(475.204 193.824 0)
(479.477 201.4 0)
(480.333 203.74 0)
(479.34 203.472 0)
(475.143 202.503 0)
(469.901 200.524 0)
(466.583 198.34 0)
(465.861 197.686 0)
(465.708 196.528 0)
(465.711 195.902 0)
(465.852 195.471 0)
(466.406 195.572 0)
(467.954 196.518 0)
(470.241 197.61 0)
(472.601 198.698 0)
(475.14 199.642 0)
(477.95 200.269 0)
(480.659 200.574 0)
(482.931 200.963 0)
(484.677 200.918 0)
(485.511 200.719 0)
(484.912 200.963 0)
(484.678 201.793 0)
(486.717 202.864 0)
(489.421 203.847 0)
(493.206 205.061 0)
(498.729 207.153 0)
(506.241 210.194 0)
(516.336 213.786 0)
(530.077 217.651 0)
(548.234 221.294 0)
(569.947 226.638 0)
(589.897 235.716 0)
(608.536 246.631 0)
(628.453 254.153 0)
(641.976 257.79 0)
(656.793 264.99 0)
(668.727 274.641 0)
(673.473 284.067 0)
(670.218 288.345 0)
(659.731 285.784 0)
(643.937 279.485 0)
(628.78 272.246 0)
(618.255 265.79 0)
(609.506 261.251 0)
(600.069 259.786 0)
(595.11 259.034 0)
(591.5 253.841 0)
(589.844 239.76 0)
(577.747 196.866 0)
(468.485 114.402 0)
(124.087 18.9523 0)
(1.11153 0.0668176 0)
(0.00015428 5.10096e-06 0)
(9.89789e-10 1.28886e-11 0)
(-4.44487e-13 -1.2644e-13 0)
(-2.12739e-13 -1.90194e-14 0)
(3.40204e-13 -6.0287e-14 0)
(7.33513e-14 -6.1488e-14 0)
(-1.67828e-13 3.22256e-13 0)
(-4.64075e-14 3.88638e-13 0)
(-4.00141e-13 5.53527e-13 0)
(378.894 148.507 0)
(392.436 152.569 0)
(408.273 157.025 0)
(426.203 163.192 0)
(444.577 171.828 0)
(460.743 182.816 0)
(472.184 194.46 0)
(477.173 203.367 0)
(478.136 206.253 0)
(476.649 205.384 0)
(472.125 204.42 0)
(467.734 202.548 0)
(465.622 200.491 0)
(465.316 199.676 0)
(465.322 198.195 0)
(465.295 196.998 0)
(465.354 196.046 0)
(465.979 195.707 0)
(467.78 196.396 0)
(470.087 197.317 0)
(472.575 198.211 0)
(475.287 198.981 0)
(478.143 199.493 0)
(480.77 199.837 0)
(483.072 200.243 0)
(484.459 200.661 0)
(484.647 200.467 0)
(483.964 199.565 0)
(484.083 199.485 0)
(486.184 200.193 0)
(488.892 200.865 0)
(492.489 201.451 0)
(497.597 201.905 0)
(505.507 202.337 0)
(516.733 203.521 0)
(529.571 206.506 0)
(543.548 211.173 0)
(560.606 216.642 0)
(579.173 223.343 0)
(598.916 233.074 0)
(620.37 244.024 0)
(636.113 251.918 0)
(650.524 260.511 0)
(661.848 271.195 0)
(667.555 282.604 0)
(663.345 292.326 0)
(652.848 294.11 0)
(640.923 289.088 0)
(629.243 282.783 0)
(619.835 275.86 0)
(613.364 268.278 0)
(607.828 264.451 0)
(604.757 264.562 0)
(604.381 262.217 0)
(603.004 255.741 0)
(570.769 246.127 0)
(376.678 160.672 0)
(44.013 16.3608 0)
(0.138334 0.0416546 0)
(7.05529e-06 2.48936e-06 0)
(4.5457e-11 1.21871e-11 0)
(-3.58425e-13 6.32904e-14 0)
(-3.29333e-13 3.03397e-13 0)
(4.83383e-14 1.79645e-13 0)
(1.77971e-13 1.06353e-13 0)
(-9.07132e-14 4.42932e-13 0)
(5.64736e-14 3.361e-13 0)
(-4.49293e-13 6.44603e-13 0)
(384.879 137.528 0)
(396.849 139.144 0)
(410.567 140.703 0)
(426.054 144.628 0)
(442.636 153.441 0)
(458.07 167.745 0)
(469.524 184.953 0)
(474.989 199.794 0)
(475.124 207.54 0)
(473.143 207.317 0)
(469.511 206.057 0)
(466.915 204.074 0)
(465.26 201.233 0)
(465.304 199.334 0)
(465.591 197.492 0)
(465.612 195.991 0)
(465.578 195.134 0)
(466.5 194.666 0)
(468.556 194.721 0)
(471.221 195.535 0)
(474.003 196.542 0)
(476.855 197.254 0)
(479.782 197.586 0)
(482.485 197.816 0)
(484.644 197.813 0)
(485.886 197.321 0)
(485.759 196.195 0)
(485.23 195.773 0)
(486.34 196.488 0)
(488.831 197.295 0)
(491.877 197.709 0)
(496.129 198.006 0)
(502.356 197.806 0)
(510.898 196.665 0)
(520.848 195.44 0)
(532.451 195.372 0)
(546.212 196.437 0)
(562.127 198.311 0)
(579.62 202.58 0)
(599.225 211.026 0)
(620.806 223.179 0)
(635.709 233.224 0)
(648.919 243.806 0)
(657.439 257.509 0)
(659.538 277.052 0)
(655.012 295.216 0)
(647.551 301.101 0)
(640.788 296.998 0)
(635.087 290.518 0)
(628.627 283.85 0)
(622.403 276.953 0)
(621.129 273.498 0)
(621.021 270.873 0)
(620.721 266.647 0)
(614.668 251.477 0)
(553.704 207.975 0)
(280.33 95.2884 0)
(12.116 2.63353 0)
(0.00993115 0.00138906 0)
(9.90033e-08 8.93142e-09 0)
(3.24295e-13 3.33361e-13 0)
(-2.68993e-13 4.37506e-13 0)
(-4.16041e-13 7.21539e-13 0)
(-1.36198e-13 5.51046e-13 0)
(-2.41166e-14 4.82111e-13 0)
(-1.46744e-13 4.51057e-13 0)
(-1.7069e-14 4.60374e-13 0)
(-1.97218e-13 4.01293e-13 0)
(391.251 135.695 0)
(400.319 134.923 0)
(409.872 133.182 0)
(420.008 132.764 0)
(431.011 137.575 0)
(443.06 150.678 0)
(455.498 170.684 0)
(465.486 192.236 0)
(469.02 206.129 0)
(469.346 208.251 0)
(467.761 206.792 0)
(466.516 204.604 0)
(465.492 202.03 0)
(465.169 199.439 0)
(465.311 197.422 0)
(465.477 195.621 0)
(466.134 194.248 0)
(467.597 194.018 0)
(469.76 194.142 0)
(472.58 194.408 0)
(475.243 195.101 0)
(477.915 195.642 0)
(480.511 195.759 0)
(482.759 195.738 0)
(484.28 195.868 0)
(484.739 195.377 0)
(484.008 193.587 0)
(484.896 192.394 0)
(487.777 192.889 0)
(491.242 193.508 0)
(495.445 193.975 0)
(500.288 193.791 0)
(505.947 192.626 0)
(512.635 190.314 0)
(520.409 187.154 0)
(529.33 184.377 0)
(539.466 183.016 0)
(550.808 183.017 0)
(564.142 185.076 0)
(580.204 191.504 0)
(598.993 202.405 0)
(614.131 213.991 0)
(628.524 228.692 0)
(639.81 249.412 0)
(645.655 274.425 0)
(646.016 295.478 0)
(643.465 304.041 0)
(641.208 301.479 0)
(639.017 295.396 0)
(636.073 288.183 0)
(631.969 281.972 0)
(630.213 278.43 0)
(629.192 274.629 0)
(625.895 271.442 0)
(604.133 266.282 0)
(483.827 209.72 0)
(144.521 54.3423 0)
(1.77028 0.354357 0)
(0.000343068 4.68434e-05 0)
(2.30821e-09 1.31448e-10 0)
(-2.82389e-13 6.74937e-13 0)
(-2.68805e-13 7.40135e-13 0)
(-3.30809e-13 6.66551e-13 0)
(-3.60528e-13 5.54179e-13 0)
(-9.12973e-14 4.1533e-13 0)
(-1.54504e-13 4.13768e-13 0)
(-6.05905e-14 3.72306e-13 0)
(-4.57307e-14 4.30164e-13 0)
(396.36 131.662 0)
(403.332 130.419 0)
(410.188 127.294 0)
(417.245 125.016 0)
(425.233 127.838 0)
(435.024 138.927 0)
(446.409 158.11 0)
(457.353 181.197 0)
(463.739 200.485 0)
(465.544 207.304 0)
(466.372 206.251 0)
(465.946 204.553 0)
(465.6 202.29 0)
(465.61 199.547 0)
(465.986 197.14 0)
(466.444 195.061 0)
(467.214 193.453 0)
(468.522 192.751 0)
(470.933 192.578 0)
(473.869 192.475 0)
(476.526 192.947 0)
(479.227 193.526 0)
(481.653 193.731 0)
(483.616 193.675 0)
(485.119 193.093 0)
(485.599 191.499 0)
(485.917 189.842 0)
(488.266 189.726 0)
(491.392 190.133 0)
(495.298 190.317 0)
(499.791 190.152 0)
(504.366 189.201 0)
(509.004 187.594 0)
(513.761 185.412 0)
(519.555 181.938 0)
(527.067 177.339 0)
(534.766 173.564 0)
(541.518 170.331 0)
(550.598 168.985 0)
(562.461 171.751 0)
(576.127 178.918 0)
(589.615 188.261 0)
(605.746 202.646 0)
(622.968 227.044 0)
(634.44 259.275 0)
(638.57 287.632 0)
(639.303 301.14 0)
(640.016 301.374 0)
(639.074 297.338 0)
(636.971 291.584 0)
(634.512 286.458 0)
(631.339 281.085 0)
(626.319 275.684 0)
(617.104 268.971 0)
(579.881 249.869 0)
(397.948 161.269 0)
(53.3977 16.2415 0)
(0.175752 0.0270918 0)
(7.69741e-06 7.69896e-07 0)
(4.17888e-11 2.94681e-12 0)
(-3.10898e-13 6.01307e-13 0)
(-3.80374e-13 6.42072e-13 0)
(-3.49626e-13 3.85872e-13 0)
(-3.91639e-13 4.63082e-13 0)
(-2.21126e-13 4.87703e-13 0)
(-1.8647e-13 3.90384e-13 0)
(1.37575e-14 3.68819e-13 0)
(-5.64656e-14 6.72479e-13 0)
(398.363 125.62 0)
(404.558 124.941 0)
(410.106 122.169 0)
(415.512 119.105 0)
(421.58 120.072 0)
(429.575 128.808 0)
(439.839 146.824 0)
(451.009 170.756 0)
(459.277 192.847 0)
(462.264 204.295 0)
(464.945 204.89 0)
(465.728 203.864 0)
(466.045 202.125 0)
(466.378 199.544 0)
(466.973 196.838 0)
(467.515 194.629 0)
(468.038 192.994 0)
(469.047 191.759 0)
(471.367 190.908 0)
(474.802 190.115 0)
(477.402 190.028 0)
(480.101 190.437 0)
(482.529 190.548 0)
(484.186 190.384 0)
(484.706 189.576 0)
(484.426 187.688 0)
(485.929 186.345 0)
(489.05 186.327 0)
(492.552 186.193 0)
(496.733 185.811 0)
(501.552 185.204 0)
(506.598 184.212 0)
(511.461 182.646 0)
(515.919 180.642 0)
(520.905 178.229 0)
(528.04 173.664 0)
(533.292 167.826 0)
(536.532 162.491 0)
(542.368 158.322 0)
(550.097 158.173 0)
(558.796 161.987 0)
(568.883 168.128 0)
(581.458 181.339 0)
(598.758 207.797 0)
(614.204 245.569 0)
(623.738 278.286 0)
(630.851 294.961 0)
(635.088 297.57 0)
(635.515 296.554 0)
(634.203 293.135 0)
(630.983 288.017 0)
(625.396 283.783 0)
(618.294 281.75 0)
(602.713 277.694 0)
(536.674 242.76 0)
(270.995 111.165 0)
(11.4086 2.863 0)
(0.00892093 0.00132499 0)
(8.3713e-08 5.95468e-09 0)
(9.03862e-14 7.2756e-13 0)
(-3.0968e-13 4.95951e-13 0)
(-3.4699e-13 5.18223e-13 0)
(-4.73641e-13 4.59554e-13 0)
(-3.00828e-13 5.90094e-13 0)
(-1.99888e-13 4.09019e-13 0)
(-3.20673e-13 5.32831e-13 0)
(2.60023e-14 7.39875e-13 0)
(1.37997e-13 6.33188e-13 0)
(398.831 121.382 0)
(404.607 120.434 0)
(409.582 118.036 0)
(414.072 114.28 0)
(418.855 113.415 0)
(425.267 119.377 0)
(434.202 134.719 0)
(445.149 158.34 0)
(454.698 183.48 0)
(459.301 199.767 0)
(463.227 203.11 0)
(465.232 203.045 0)
(465.993 201.707 0)
(466.528 199.127 0)
(467.2 196.29 0)
(467.869 194.252 0)
(468.58 192.421 0)
(469.749 190.77 0)
(472.111 189.431 0)
(475.491 188.296 0)
(478.165 187.399 0)
(480.737 187.16 0)
(483.157 186.788 0)
(484.88 185.896 0)
(485.158 184.278 0)
(484.468 182.572 0)
(485.791 182.17 0)
(488.75 182.482 0)
(492.116 182.52 0)
(496.295 181.858 0)
(501.417 180.763 0)
(507.393 179.393 0)
(513.295 177.55 0)
(518.206 175.902 0)
(522.642 174.748 0)
(527.898 171.833 0)
(532.526 164.837 0)
(535.466 157.477 0)
(539.782 151.96 0)
(543.594 147.759 0)
(549.034 148.058 0)
(556.384 151.907 0)
(565.821 162.114 0)
(581.716 185.061 0)
(598.966 220.365 0)
(611.956 256.057 0)
(622.778 283.007 0)
(628.223 292.211 0)
(629.118 293.112 0)
(627.345 291.711 0)
(622.559 288.491 0)
(616.14 285.182 0)
(609.194 281.119 0)
(590.427 269.195 0)
(481.036 207.261 0)
(143.954 52.1818 0)
(1.70174 0.311776 0)
(0.000312893 3.75987e-05 0)
(2.07694e-09 1.07642e-10 0)
(-3.47433e-13 6.99697e-13 0)
(-3.90165e-13 7.12062e-13 0)
(-2.91431e-13 4.52834e-13 0)
(-3.50663e-13 3.90058e-13 0)
(-4.22063e-13 4.83463e-13 0)
(-2.95312e-13 3.65482e-13 0)
(-8.97348e-15 5.12476e-13 0)
(1.66054e-14 6.23251e-13 0)
(1.45618e-13 3.24444e-13 0)
(400.678 117.082 0)
(405.973 116.22 0)
(410.61 114.498 0)
(414.353 111.411 0)
(418.283 109.671 0)
(423.473 113.154 0)
(430.539 124.927 0)
(439.668 146.007 0)
(449.424 171.781 0)
(455.554 192.598 0)
(460.87 200.707 0)
(464.58 201.252 0)
(465.469 200.169 0)
(465.966 197.543 0)
(466.816 194.845 0)
(467.802 193.01 0)
(468.944 191.264 0)
(470.581 189.434 0)
(473.281 187.984 0)
(476.64 186.788 0)
(478.961 185.553 0)
(481.448 184.535 0)
(483.738 183.239 0)
(485.115 181.432 0)
(485.17 179.156 0)
(485.37 177.486 0)
(487.506 177.236 0)
(490.561 177.489 0)
(493.914 177.56 0)
(497.733 177.2 0)
(502.243 176.484 0)
(507.815 174.838 0)
(513.886 172.636 0)
(519.599 171.228 0)
(524.239 169.952 0)
(528.099 167.726 0)
(531.888 161.78 0)
(534.644 154.548 0)
(537.206 148.724 0)
(539.863 141.547 0)
(542.081 138.331 0)
(546.182 141.05 0)
(552.246 149.277 0)
(564.017 169.095 0)
(578.218 199.568 0)
(591.197 237.983 0)
(607.6 270.727 0)
(620.394 286.809 0)
(623.036 291.313 0)
(620.424 291.985 0)
(615.56 291.536 0)
(610.548 290.107 0)
(602.902 286.69 0)
(569.162 265.039 0)
(386.324 165.962 0)
(47.6195 15.0379 0)
(0.138803 0.0223457 0)
(5.267e-06 5.52197e-07 0)
(2.81687e-11 2.17032e-12 0)
(-1.87472e-13 4.69101e-13 0)
(-3.85962e-13 5.91767e-13 0)
(-5.66518e-13 3.57397e-13 0)
(-3.64155e-13 3.65705e-13 0)
(-1.23141e-13 4.28834e-13 0)
(-4.13176e-13 8.45769e-13 0)
(-1.27e-13 3.75773e-13 0)
(-7.27472e-14 4.2746e-13 0)
(2.00107e-13 3.82222e-13 0)
(401.198 112.714 0)
(406.258 111.938 0)
(410.787 110.702 0)
(414.452 108.187 0)
(417.885 105.652 0)
(422.287 107.441 0)
(428.169 117.026 0)
(435.775 135.659 0)
(444.963 160.692 0)
(452.679 184.604 0)
(459.451 197.057 0)
(463.637 199.057 0)
(464.195 197.903 0)
(464.732 195.075 0)
(466.112 192.682 0)
(467.569 191.068 0)
(469.292 189.464 0)
(471.529 187.668 0)
(474.83 186.219 0)
(477.823 184.949 0)
(479.616 183.859 0)
(481.593 182.429 0)
(483.101 180.47 0)
(483.859 177.714 0)
(484.365 174.698 0)
(486.054 172.905 0)
(489.008 172.484 0)
(492.26 172.354 0)
(495.703 172.1 0)
(499.249 171.893 0)
(502.965 171.857 0)
(507.318 170.741 0)
(512.505 168.743 0)
(518.966 166.456 0)
(524.528 163.67 0)
(527.607 161.221 0)
(530.637 157.489 0)
(533.451 152.015 0)
(535.103 146.063 0)
(536.661 138.404 0)
(536.982 132.356 0)
(539.012 132.887 0)
(543.407 138.405 0)
(552.323 152.154 0)
(567.708 175.572 0)
(583.799 210.118 0)
(599.167 248.697 0)
(615.478 275.151 0)
(620.153 290.098 0)
(616.51 294.725 0)
(611.485 295.063 0)
(607.257 292.032 0)
(597.813 283.623 0)
(534.601 242.991 0)
(262.205 106.114 0)
(9.95205 2.36282 0)
(0.00681508 0.00094151 0)
(5.86514e-08 3.66262e-09 0)
(3.64648e-13 2.29269e-13 0)
(6.95266e-14 -4.89155e-14 0)
(-1.83892e-13 1.14165e-13 0)
(-3.42741e-13 8.98693e-14 0)
(-2.17426e-13 3.21851e-13 0)
(-1.02746e-13 4.6942e-13 0)
(-3.46011e-13 4.13109e-13 0)
(-2.44875e-13 1.85612e-13 0)
(9.57482e-14 2.91392e-13 0)
(1.92695e-13 4.24089e-13 0)
(402.16 107.459 0)
(407.211 106.949 0)
(411.698 106.549 0)
(415.271 105.179 0)
(418.032 102.337 0)
(421.253 102.1 0)
(426.052 109.734 0)
(432.882 126.615 0)
(441.641 150.513 0)
(450.573 175.664 0)
(458.233 192.349 0)
(462.635 196.162 0)
(462.614 194.695 0)
(463.408 191.973 0)
(465.371 190.238 0)
(467.425 188.758 0)
(469.792 187.291 0)
(472.723 185.643 0)
(476.38 184.032 0)
(478.927 182.177 0)
(480.416 180.575 0)
(481.578 178.799 0)
(482.025 176.534 0)
(482.196 173.361 0)
(483.746 170.55 0)
(486.586 169.3 0)
(489.761 168.72 0)
(493.453 168.152 0)
(497.313 167.346 0)
(500.948 166.925 0)
(504.325 166.637 0)
(507.691 165.899 0)
(511.378 164.957 0)
(516.605 162.891 0)
(522.891 158.63 0)
(526.74 154.639 0)
(529.3 151.753 0)
(531.784 148.073 0)
(533.131 143.125 0)
(533.644 136.707 0)
(533.74 129.367 0)
(533.609 127.317 0)
(536.165 130.227 0)
(542.037 138.526 0)
(552.157 156.234 0)
(563.966 186.301 0)
(581.083 228.55 0)
(603.641 263.294 0)
(615.392 287.273 0)
(614.203 296.761 0)
(610.675 298.986 0)
(605.612 297.207 0)
(586.135 283.865 0)
(466.607 212.788 0)
(124.184 46.9266 0)
(1.185 0.223831 0)
(0.000170139 2.16071e-05 0)
(1.08254e-09 5.85978e-11 0)
(-4.93254e-14 -1.55424e-13 0)
(4.4632e-14 -2.48866e-14 0)
(-9.23934e-14 1.17305e-13 0)
(-3.74153e-13 3.01158e-13 0)
(-6.9902e-14 3.06144e-13 0)
(7.80614e-14 1.9278e-13 0)
(-2.43201e-13 -3.48424e-14 0)
(-2.73438e-13 2.69605e-13 0)
(1.52334e-13 1.69054e-13 0)
(2.68284e-13 1.34417e-13 0)
(402.31 102.518 0)
(407.099 102.404 0)
(411.631 102.46 0)
(415.437 101.998 0)
(418.191 99.4219 0)
(420.55 97.6987 0)
(424.266 103.101 0)
(430.564 117.879 0)
(439.011 140.564 0)
(448.484 166.335 0)
(457.021 186.124 0)
(461.408 192.159 0)
(461.123 190.664 0)
(462.438 188.815 0)
(464.931 187.867 0)
(467.52 186.512 0)
(470.44 185.191 0)
(473.833 183.666 0)
(477.511 181.403 0)
(479.891 178.603 0)
(481.193 175.81 0)
(482.077 172.822 0)
(482.151 169.542 0)
(482.128 166.94 0)
(483.83 166.176 0)
(486.578 166.069 0)
(489.708 165.766 0)
(493.445 165.022 0)
(497.865 163.741 0)
(502.037 162.572 0)
(505.418 161.527 0)
(508.475 160.735 0)
(511.426 160.268 0)
(514.96 158.897 0)
(519.595 155.177 0)
(524.46 150.143 0)
(527.562 146.341 0)
(529.83 143.182 0)
(531.177 139.337 0)
(531.23 134.899 0)
(531.094 129.067 0)
(530.615 123.932 0)
(530.599 123.706 0)
(533.356 128.14 0)
(540.018 138.613 0)
(552.548 160.287 0)
(573.338 198.051 0)
(597.859 244.097 0)
(612.803 281.253 0)
(614.294 297.564 0)
(610.511 302.292 0)
(603.107 298.239 0)
(563.679 271.826 0)
(360.821 159.573 0)
(34.9499 10.7931 0)
(0.0736792 0.0117369 0)
(1.91799e-06 1.89364e-07 0)
(9.92922e-12 7.56954e-13 0)
(-4.80577e-14 8.9892e-14 0)
(2.2521e-13 2.09554e-13 0)
(-1.01282e-14 3.27508e-13 0)
(-3.15643e-13 5.69088e-13 0)
(-3.8646e-13 6.01665e-13 0)
(-2.35915e-13 1.02661e-13 0)
(-1.69901e-14 3.0096e-15 0)
(-2.17904e-13 4.51811e-13 0)
(-1.22099e-13 2.91612e-13 0)
(9.72781e-14 3.26985e-13 0)
(405.142 96.2531 0)
(409.366 97.0054 0)
(413.445 97.8216 0)
(416.829 98.3423 0)
(419.232 97.4386 0)
(420.866 95.2316 0)
(423.616 98.1697 0)
(429.172 110.131 0)
(436.992 130.903 0)
(446.045 156.029 0)
(455.012 177.288 0)
(458.629 186.664 0)
(459.812 186.345 0)
(462.195 185.788 0)
(465.11 185.383 0)
(467.973 184.318 0)
(471.096 183.196 0)
(474.763 181.435 0)
(477.996 178.561 0)
(479.75 175.058 0)
(480.916 170.954 0)
(481.674 166.532 0)
(481.907 162.715 0)
(482.719 160.972 0)
(484.766 160.89 0)
(487.345 161.224 0)
(490.293 161.722 0)
(493.559 161.903 0)
(497.478 161.055 0)
(501.858 159.362 0)
(505.963 157.548 0)
(509.59 156.184 0)
(512.467 154.962 0)
(515 153.406 0)
(517.762 151.032 0)
(521.12 147.362 0)
(525.179 142.744 0)
(527.626 138.935 0)
(529.081 135.757 0)
(529.582 132.26 0)
(529.033 128.558 0)
(528.362 123.72 0)
(527.23 120.018 0)
(526.88 120.318 0)
(530.632 125.261 0)
(537.345 139.569 0)
(551.426 172.081 0)
(579.324 220.544 0)
(605.662 269.457 0)
(612.203 295.994 0)
(608.942 305.774 0)
(595.064 301.365 0)
(515.259 250.537 0)
(215.588 91.6961 0)
(5.36187 1.24381 0)
(0.00224436 0.000321206 0)
(1.6906e-08 1.03952e-09 0)
(2.01943e-14 5.49004e-13 0)
(-9.72983e-14 1.81984e-13 0)
(1.80697e-13 1.51519e-13 0)
(1.47958e-13 1.85098e-13 0)
(-1.09979e-13 2.98593e-13 0)
(-4.39669e-13 3.76794e-13 0)
(-4.51481e-13 3.45686e-13 0)
(-1.74957e-14 3.60526e-13 0)
(-6.36679e-14 2.92216e-13 0)
(-3.46231e-14 2.42608e-13 0)
(3.33668e-14 3.56802e-13 0)
(407.133 90.2471 0)
(411.077 92.298 0)
(414.606 93.5322 0)
(417.697 94.4463 0)
(420.257 94.4523 0)
(421.772 93.5118 0)
(423.923 94.7833 0)
(428.636 103.655 0)
(435.752 122.239 0)
(444.271 146.344 0)
(453.557 167.949 0)
(456.733 179.88 0)
(458.903 182.178 0)
(462.473 182.714 0)
(465.48 182.595 0)
(468.443 181.878 0)
(471.588 180.783 0)
(475.096 178.645 0)
(477.582 175.219 0)
(478.727 171.178 0)
(479.35 166.635 0)
(479.874 161.694 0)
(481.391 157.872 0)
(484.059 156.512 0)
(486.81 156.121 0)
(489.44 156.296 0)
(492.104 156.862 0)
(494.838 157.455 0)
(497.72 157.77 0)
(501.16 156.857 0)
(505.158 154.897 0)
(509.37 152.649 0)
(513.009 150.124 0)
(515.359 148.054 0)
(517.12 146.272 0)
(519.143 144.273 0)
(521.876 140.985 0)
(525.185 136.336 0)
(526.885 132.78 0)
(527.594 130.098 0)
(527.538 126.769 0)
(526.729 122.458 0)
(525.312 117.629 0)
(523.51 115.689 0)
(524.145 117.953 0)
(528.696 126.209 0)
(541.433 149.85 0)
(569.751 195.156 0)
(597.27 251.086 0)
(607.035 288.934 0)
(603.992 305.705 0)
(578.046 296.072 0)
(428.916 206.053 0)
(80.3682 29.9496 0)
(0.427004 0.077062 0)
(3.11333e-05 3.79643e-06 0)
(1.77978e-10 1.00598e-11 0)
(-3.06585e-13 2.55376e-13 0)
(-2.56525e-13 1.57351e-13 0)
(1.31382e-13 3.1223e-13 0)
(2.04365e-13 2.7887e-13 0)
(-2.42156e-14 2.10937e-13 0)
(-3.0022e-13 3.96531e-13 0)
(-3.07457e-13 3.72327e-13 0)
(-2.30205e-13 5.59488e-13 0)
(-2.40294e-13 3.10305e-13 0)
(-6.4004e-14 1.60162e-13 0)
(2.30829e-13 2.30221e-13 0)
(411.204 82.3016 0)
(415.455 86.3764 0)
(417.921 88.0921 0)
(420.178 89.6607 0)
(422.149 90.5193 0)
(423.596 91.029 0)
(424.928 91.6228 0)
(428.42 97.5861 0)
(434.621 113.77 0)
(443.034 136.819 0)
(451.918 157.63 0)
(453.203 173.397 0)
(457.356 178.017 0)
(462.498 179.194 0)
(466.038 179.008 0)
(469.395 178.339 0)
(472.624 176.819 0)
(475.419 174.058 0)
(477.127 170.146 0)
(478.106 165.522 0)
(478.493 160.808 0)
(478.984 157.03 0)
(480.777 155.258 0)
(483.49 154.181 0)
(486.977 153.001 0)
(490.66 152.36 0)
(493.901 152.341 0)
(496.707 152.817 0)
(499.215 153.231 0)
(501.692 153.153 0)
(504.553 152.297 0)
(508.084 149.983 0)
(512.067 146.677 0)
(515.448 143.47 0)
(517.298 141.344 0)
(518.673 139.695 0)
(520.356 137.761 0)
(522.471 134.821 0)
(524.487 130.945 0)
(525.677 127.527 0)
(525.877 124.401 0)
(524.839 121.484 0)
(522.65 118.263 0)
(520.316 115.565 0)
(519.971 115.448 0)
(521.831 119.21 0)
(528.738 133.817 0)
(552.378 170.315 0)
(581.753 226.462 0)
(595.989 274.096 0)
(592.294 302.804 0)
(537.963 281.615 0)
(287.872 137.322 0)
(14.5966 4.21821 0)
(0.0138217 0.00225145 0)
(1.4876e-07 1.27438e-08 0)
(1.19607e-12 1.93173e-13 0)
(-2.58072e-14 -4.864e-14 0)
(-4.21991e-14 2.23712e-13 0)
(1.72089e-13 4.09775e-13 0)
(4.97764e-14 2.42018e-13 0)
(8.59219e-15 4.76741e-13 0)
(-2.55199e-13 4.31729e-13 0)
(-3.76499e-13 3.93135e-13 0)
(-7.0684e-14 3.27594e-13 0)
(-3.1032e-13 2.47969e-13 0)
(-2.19114e-13 3.48453e-13 0)
(1.69418e-13 -2.40621e-14 0)
(415.02 73.6719 0)
(419.571 79.7496 0)
(421.537 82.5213 0)
(423.287 84.3727 0)
(424.769 86.1291 0)
(425.968 87.2305 0)
(426.917 88.0563 0)
(428.924 91.8336 0)
(433.732 104.826 0)
(441.711 125.782 0)
(450.709 148.381 0)
(452.854 165.915 0)
(456.627 173.242 0)
(463.098 174.882 0)
(466.775 174.79 0)
(469.942 173.945 0)
(473.029 171.843 0)
(475.551 168.181 0)
(477.09 163.456 0)
(477.979 158.376 0)
(478.48 154.317 0)
(479.248 152.288 0)
(481.097 151.867 0)
(483.701 151.66 0)
(486.97 150.83 0)
(490.879 149.788 0)
(494.873 148.977 0)
(498.256 148.557 0)
(500.941 148.518 0)
(503.137 148.451 0)
(505.208 147.919 0)
(507.545 146.7 0)
(510.235 144.16 0)
(513.565 140.733 0)
(516.817 137.351 0)
(518.48 135.193 0)
(519.616 133.723 0)
(520.775 131.804 0)
(522.149 128.778 0)
(523.359 125.466 0)
(523.723 123.568 0)
(523.374 122.148 0)
(521.389 120.791 0)
(517.945 119.238 0)
(516.207 118.329 0)
(515.679 118.641 0)
(520.281 126.603 0)
(538.693 154.473 0)
(564.87 203.42 0)
(580.963 249.353 0)
(574.099 283.669 0)
(460.631 236.52 0)
(121.59 52.4866 0)
(1.16545 0.243969 0)
(0.000161235 2.35259e-05 0)
(9.95906e-10 5.75214e-11 0)
(3.35202e-13 -8.1606e-14 0)
(-2.85852e-14 1.41588e-13 0)
(-3.35425e-16 3.8244e-13 0)
(6.90451e-14 4.10022e-13 0)
(2.05584e-13 2.89398e-13 0)
(2.61746e-14 3.94612e-13 0)
(-1.50587e-13 1.25929e-13 0)
(-3.98764e-13 3.22173e-13 0)
(-1.40716e-13 1.59024e-14 0)
(-6.85146e-14 -1.11144e-13 0)
(-3.07844e-13 2.72871e-14 0)
(-1.41338e-13 -2.03527e-13 0)
(432.441 61.4054 0)
(423.838 70.3022 0)
(426.3 76.7312 0)
(427.317 78.7786 0)
(428.469 81.114 0)
(429.301 83.188 0)
(429.914 84.0453 0)
(430.778 86.4593 0)
(434.154 96.2494 0)
(441.089 114.702 0)
(449.195 137.267 0)
(452.291 156.384 0)
(455.623 167.421 0)
(463.564 170.23 0)
(467.527 170.28 0)
(470.65 168.893 0)
(473.335 165.99 0)
(475.062 161.848 0)
(475.997 156.965 0)
(476.983 152.246 0)
(478.703 148.955 0)
(480.8 147.113 0)
(482.979 146.295 0)
(485.339 146.56 0)
(487.917 147.27 0)
(491.145 147.496 0)
(494.863 146.705 0)
(498.601 145.491 0)
(501.898 144.376 0)
(504.366 143.613 0)
(506.338 142.951 0)
(507.958 142.001 0)
(509.666 140.607 0)
(511.689 138.318 0)
(514.62 135.187 0)
(517.848 131.875 0)
(519.31 129.789 0)
(519.967 128.013 0)
(520.54 126.208 0)
(521.32 124.693 0)
(522.042 123.285 0)
(522.181 122.715 0)
(521.176 122.828 0)
(518.827 124.046 0)
(516.165 126.29 0)
(513.827 128.755 0)
(514.999 133.472 0)
(528.176 150.845 0)
(546.399 181.999 0)
(559.291 215.777 0)
(530.777 244.948 0)
(315.398 151.819 0)
(21.1688 6.88786 0)
(0.0285773 0.00514352 0)
(4.28624e-07 5.19075e-08 0)
(2.49436e-12 4.36589e-13 0)
(5.24812e-13 3.12477e-14 0)
(3.30484e-13 2.51142e-13 0)
(1.45202e-13 3.00041e-13 0)
(7.55846e-14 3.85912e-13 0)
(-3.01115e-14 3.00887e-13 0)
(4.40484e-14 4.49389e-15 0)
(-2.32889e-13 -5.3135e-14 0)
(-1.5782e-13 -1.587e-13 0)
(-2.70899e-13 -2.43681e-13 0)
(-4.35515e-15 -3.3808e-13 0)
(-1.71837e-14 -1.13973e-13 0)
(-2.99867e-13 -1.5754e-14 0)
(476.931 33.7232 0)
(437.237 57.8974 0)
(430.617 69.4008 0)
(431.019 74.1533 0)
(431.774 76.5339 0)
(432.657 78.8145 0)
(433.186 80.074 0)
(433.589 81.5525 0)
(435.675 88.1143 0)
(441.201 103.551 0)
(448.521 126.127 0)
(453.388 147.821 0)
(457.989 160.873 0)
(464.549 165.088 0)
(467.523 165.337 0)
(469.903 163.816 0)
(472.036 160.444 0)
(473.67 155.746 0)
(475.216 150.891 0)
(477.011 147.294 0)
(479.164 144.92 0)
(481.916 142.963 0)
(485.161 141.749 0)
(488.011 141.545 0)
(490.348 142.194 0)
(492.835 143.041 0)
(495.293 143.689 0)
(498.08 143.307 0)
(501.391 141.67 0)
(504.769 139.731 0)
(507.255 138.188 0)
(509.011 137.072 0)
(510.134 136.026 0)
(511.29 134.941 0)
(512.846 133.319 0)
(515.347 130.559 0)
(518.211 127.492 0)
(519.271 125.882 0)
(519.552 125.058 0)
(519.841 124.447 0)
(520.376 124.082 0)
(520.913 124.768 0)
(520.684 127.183 0)
(519.781 131.117 0)
(518.719 134.602 0)
(517.289 136.876 0)
(517.06 138.365 0)
(524.56 139.674 0)
(532.667 142.89 0)
(533.729 155.881 0)
(452.24 152.082 0)
(136.073 44.9863 0)
(1.57841 0.280969 0)
(0.000288108 3.59577e-05 0)
(1.9208e-09 1.00038e-10 0)
(1.76514e-13 1.59865e-13 0)
(4.40546e-13 1.54678e-13 0)
(3.42871e-13 5.91882e-14 0)
(2.67954e-13 -1.14394e-14 0)
(2.17568e-13 3.9391e-14 0)
(-9.13951e-14 1.60233e-13 0)
(-9.99746e-14 -3.40266e-14 0)
(-3.95838e-13 -4.13601e-14 0)
(-2.43608e-13 -3.02418e-13 0)
(-8.34818e-14 -4.77551e-13 0)
(1.0237e-13 -3.00171e-13 0)
(1.93602e-13 -3.69758e-13 0)
(-1.58919e-13 -2.89245e-13 0)
(515.379 7.15885 0)
(474.806 35.2979 0)
(442.17 55.9997 0)
(435.768 69.0939 0)
(435.424 72.6677 0)
(435.962 74.7796 0)
(436.589 76.46 0)
(436.812 77.7333 0)
(437.923 81.7879 0)
(441.849 93.9228 0)
(448.326 115 0)
(454.105 138.633 0)
(460.159 154.758 0)
(465.752 159.837 0)
(467.32 159.718 0)
(469.215 157.101 0)
(471.221 153.169 0)
(472.995 149.091 0)
(474.845 146.043 0)
(476.734 144.114 0)
(478.909 142.47 0)
(481.511 140.587 0)
(485.165 138.937 0)
(489.886 137.869 0)
(493.293 137.594 0)
(495.429 138.064 0)
(497.314 138.654 0)
(498.767 139.094 0)
(500.893 139.037 0)
(503.611 137.363 0)
(506.915 134.866 0)
(509.666 132.791 0)
(511.331 131.564 0)
(512.215 130.748 0)
(512.9 129.808 0)
(514.003 128.605 0)
(516.063 126.753 0)
(518.72 125.32 0)
(519.699 125.211 0)
(519.578 125.53 0)
(519.51 125.847 0)
(520.4 126.813 0)
(521.695 128.794 0)
(522.659 131.337 0)
(523.454 133.833 0)
(524.345 135.24 0)
(525.257 134.652 0)
(527.773 124.933 0)
(529.457 100.64 0)
(512.825 70.827 0)
(376.902 32.7733 0)
(61.6879 2.71104 0)
(0.302078 0.00231094 0)
(2.70424e-05 -1.34969e-07 0)
(1.97383e-10 -1.57314e-12 0)
(2.24593e-13 1.7077e-13 0)
(2.51541e-13 3.43827e-13 0)
(3.93685e-13 -4.97952e-15 0)
(3.1502e-13 6.10393e-14 0)
(4.1145e-13 6.70259e-14 0)
(-7.65171e-15 2.13839e-13 0)
(-2.95425e-13 1.58245e-13 0)
(-5.74058e-13 -1.73793e-13 0)
(-6.36245e-13 -1.87425e-13 0)
(-1.97835e-13 -3.05156e-13 0)
(-4.91525e-14 -5.92189e-14 0)
(1.12075e-13 -2.86881e-13 0)
(1.73983e-13 -6.82478e-14 0)
(524.92 0.778466 0)
(513.491 8.70923 0)
(475.819 34.8574 0)
(447.089 56.3195 0)
(440.339 68.6034 0)
(439.135 71.2483 0)
(439.298 73.2805 0)
(439.656 74.9539 0)
(440.301 77.503 0)
(442.703 86.2443 0)
(448.155 104.992 0)
(455 129.9 0)
(461.818 148.955 0)
(467.411 153.877 0)
(467.804 152.428 0)
(468.987 148.84 0)
(471.032 145.227 0)
(473.318 142.423 0)
(475.589 140.554 0)
(477.75 139.186 0)
(479.966 138.338 0)
(482.248 137.702 0)
(485.426 136.842 0)
(489.973 135.424 0)
(494.556 134.056 0)
(497.262 133.4 0)
(499.477 133.538 0)
(501.113 133.851 0)
(501.924 134.072 0)
(503.347 133.939 0)
(505.436 132.633 0)
(508.269 130.235 0)
(511.462 128.044 0)
(513.275 126.856 0)
(514.014 126.57 0)
(514.201 126.536 0)
(514.985 126.325 0)
(517.541 125.294 0)
(520.313 125.081 0)
(520.789 125.821 0)
(521.003 126.378 0)
(522.026 126.422 0)
(524.408 126.21 0)
(526.168 126.016 0)
(528.348 124.616 0)
(530.904 117.724 0)
(534.003 99.2867 0)
(535.808 66.6631 0)
(532.09 30.6083 0)
(504.571 4.68384 0)
(363.39 -6.44663 0)
(67.7939 -2.31567 0)
(0.454818 -0.0158659 0)
(6.29809e-05 -2.12067e-06 0)
(5.0479e-10 -1.11407e-11 0)
(2.87541e-13 4.97532e-13 0)
(-2.10294e-14 3.06905e-13 0)
(9.50021e-14 9.55001e-14 0)
(4.26059e-13 1.50623e-13 0)
(3.57808e-13 2.00668e-13 0)
(1.79094e-14 1.8281e-13 0)
(-4.97768e-13 6.28139e-14 0)
(-6.939e-13 -4.8496e-14 0)
(-6.89571e-13 6.2901e-14 0)
(-1.2864e-13 8.053e-14 0)
(-1.63869e-14 1.03189e-13 0)
(-6.90173e-14 1.34608e-13 0)
(3.60292e-13 3.10365e-13 0)
(526.024 0.0357605 0)
(524.755 0.923173 0)
(512.615 9.89629 0)
(479.381 33.3195 0)
(451.495 56.692 0)
(444.704 67.1467 0)
(442.225 69.9184 0)
(442.313 72.4129 0)
(442.781 74.386 0)
(444.201 80.6267 0)
(448.488 96.3601 0)
(456.036 120.46 0)
(463.274 141.722 0)
(467.117 147.439 0)
(466.773 144.277 0)
(468.428 140.552 0)
(471.193 138.182 0)
(473.881 136.241 0)
(476.577 134.372 0)
(479.384 133.015 0)
(482.028 132.201 0)
(484.546 132.166 0)
(487.148 132.907 0)
(490.433 133.189 0)
(493.997 131.975 0)
(497.299 130.394 0)
(500.016 129.299 0)
(502.414 128.797 0)
(504.054 128.854 0)
(504.555 129.141 0)
(505.296 129.131 0)
(506.778 128.275 0)
(509.295 126.141 0)
(512.961 123.983 0)
(515.013 123.37 0)
(515.424 123.633 0)
(515.477 124.365 0)
(516.637 124.205 0)
(520.079 123.438 0)
(522.076 124.013 0)
(522.008 125.055 0)
(521.197 124.763 0)
(521.89 119.884 0)
(524.449 108.524 0)
(527.884 88.9428 0)
(530.493 60.7895 0)
(530.607 30.1659 0)
(528.906 8.91587 0)
(524.406 0.112969 0)
(502.319 -3.49446 0)
(377.72 -5.35247 0)
(81.3852 -1.31813 0)
(0.655927 -0.00760502 0)
(0.000107075 -9.90491e-07 0)
(8.5161e-10 -4.49887e-12 0)
(8.42947e-14 3.69057e-13 0)
(-1.32509e-13 2.79755e-13 0)
(5.72997e-14 4.37437e-13 0)
(3.65336e-13 3.53038e-13 0)
(4.32393e-13 8.47802e-15 0)
(-5.54593e-14 4.03968e-14 0)
(-5.34387e-13 -1.22288e-13 0)
(-6.35473e-13 1.62145e-13 0)
(-6.22836e-13 1.46534e-14 0)
(-3.59832e-13 2.91707e-13 0)
(-7.08017e-15 9.40008e-14 0)
(1.07106e-13 3.09147e-13 0)
(1.89879e-13 2.81092e-13 0)
(526.153 -0.0834736 0)
(526.081 -0.0638772 0)