/*--------------------------------*- C++ -*----------------------------------*\
| =========                 |                                                 |
| \\      /  F ield         | OpenFOAM: The Open Source CFD Toolbox           |
|  \\    /   O peration     | Version:  2306                                  |
|   \\  /    A nd           | Website:  www.openfoam.com                      |
|    \\/     M anipulation  |                                                 |
\*---------------------------------------------------------------------------*/
FoamFile
{
    version     2.0;
    format      ascii;
    arch        "LSB;label=32;scalar=64";
    class       volVectorField;
    location    "1e-05";
    object      U;
}
// * * * * * * * * * * * * * * * * * * * * * * * * * * * * * * * * * * * * * //

dimensions      [0 1 -1 0 0 0 0];

internalField   nonuniform List<vector> 
8983
(
(580 -3.74773e-14 0)
(580 6.30889e-14 0)
(580 7.5582e-14 0)
(580 1.83635e-13 0)
(580 1.71674e-13 0)
(580 1.97517e-13 0)
(580 8.12553e-14 0)
(580 3.33513e-14 0)
(580 3.26626e-14 0)
(580 1.13423e-13 0)
(580 4.2176e-13 0)
(580 5.09505e-13 0)
(580 3.01899e-13 0)
(580 6.40597e-14 0)
(580 1.05614e-13 0)
(580 1.85473e-13 0)
(580 2.2346e-13 0)
(580 3.68018e-13 0)
(580 4.75574e-13 0)
(580 6.75697e-13 0)
(580 5.75447e-13 0)
(580 6.11548e-13 0)
(580 5.42741e-13 0)
(580 5.50928e-13 0)
(580 5.59807e-13 0)
(580 6.4306e-13 0)
(580 9.30488e-13 0)
(580 4.60027e-13 0)
(580 4.44232e-13 0)
(580 6.32182e-13 0)
(580 9.85982e-13 0)
(580 1.19785e-12 0)
(580 1.44131e-12 0)
(580 1.80366e-12 0)
(580 2.2446e-13 0)
(580 -1.14463e-13 0)
(580 -3.59159e-13 0)
(580 -4.07687e-13 0)
(580 -3.44298e-13 0)
(580 -3.74025e-13 0)
(580 -4.18078e-13 0)
(580 -4.84897e-13 0)
(580 -6.27348e-13 0)
(580 -1.04752e-14 0)
(580 9.26213e-14 0)
(580 6.96615e-14 0)
(580 5.30993e-14 0)
(580 -1.14377e-15 0)
(580 -2.50936e-14 0)
(580 -1.27482e-13 0)
(580 -1.7008e-13 0)
(580 7.93445e-15 0)
(580 4.5215e-13 0)
(580 5.13399e-13 0)
(580 6.61839e-13 0)
(580 6.34847e-13 0)
(580 5.01021e-13 0)
(580 4.6977e-13 0)
(580 3.73352e-13 0)
(580 2.89221e-13 0)
(580 2.0121e-13 0)
(580 1.74427e-13 0)
(580 1.10562e-13 0)
(580 1.46748e-13 0)
(580 2.16464e-13 0)
(580 4.44842e-13 0)
(580 5.26229e-13 0)
(580 6.72519e-13 0)
(580 7.8162e-13 0)
(580 5.96165e-13 0)
(580 6.61591e-13 0)
(580 4.04508e-13 0)
(580 3.62505e-13 0)
(580 6.76044e-13 0)
(580 9.43193e-13 0)
(580 1.20115e-12 0)
(580 1.63985e-12 0)
(580 5.34554e-13 0)
(580 2.46609e-13 0)
(580 1.25821e-13 0)
(580 -7.30435e-15 0)
(580 -2.39131e-13 0)
(580 -4.22202e-13 0)
(580 -4.63908e-13 0)
(580 -5.47758e-13 0)
(580 -5.15139e-13 0)
(580 -3.60611e-13 0)
(580 -1.71947e-13 0)
(580 6.98919e-15 0)
(579.999 5.59724e-14 0)
(579.994 5.4264e-14 0)
(579.977 7.05058e-14 0)
(579.907 5.40367e-14 0)
(579.629 -2.04923e-14 0)
(578.559 4.40145e-13 0)
(574.735 1.0332e-12 0)
(563.692 -1.76946e-12 0)
(544.487 -6.8921e-13 0)
(530.19 2.76809e-12 0)
(526.844 4.20975e-13 0)
(526.73 6.39441e-15 0)
(526.809 3.48344e-14 0)
(526.999 1.24175e-13 0)
(527.103 -8.55009e-14 0)
(527.099 -2.49806e-13 0)
(527.046 -3.51015e-13 0)
(526.899 -2.72387e-13 0)
(526.653 8.06943e-13 0)
(526.365 4.42297e-13 0)
(526.109 -5.30293e-14 0)
(525.929 -7.17955e-13 0)
(525.815 -5.34314e-15 0)
(525.739 1.22998e-12 0)
(525.679 1.33025e-12 0)
(525.627 9.37645e-13 0)
(525.578 3.00113e-13 0)
(525.531 -4.83828e-13 0)
(525.492 -3.98828e-13 0)
(525.47 -1.85423e-13 0)
(525.471 2.50212e-13 0)
(525.494 -1.79151e-13 0)
(525.516 8.09536e-13 0)
(525.571 -3.75513e-12 0)
(580 5.22665e-14 0)
(580 2.25348e-14 0)
(580 -4.9613e-15 0)
(580 -4.31383e-14 0)
(580 -1.38762e-14 0)
(580 -8.2656e-14 0)
(580 -2.90842e-13 0)
(580 -4.85013e-13 0)
(580 -2.65405e-13 0)
(580 -9.94077e-14 0)
(580 1.71467e-13 0)
(580 4.02678e-13 0)
(580 3.51684e-13 0)
(580 6.26429e-13 0)
(580 8.00569e-13 0)
(580 7.25326e-13 0)
(580 5.495e-13 0)
(580 1.96934e-13 0)
(580 -1.23553e-13 0)
(580 -6.16851e-13 0)
(580 -4.527e-13 0)
(580 -2.37984e-13 0)
(580 6.13255e-14 0)
(580 5.538e-13 0)
(580 6.20808e-13 0)
(580 5.62163e-13 0)
(580 2.58162e-13 0)
(580 3.22252e-13 0)
(580 -1.24991e-13 0)
(580 -2.20876e-13 0)
(580 1.35656e-13 0)
(580 3.85011e-13 0)
(580 5.50717e-13 0)
(580 6.86608e-13 0)
(580 4.8081e-13 0)
(580 4.15972e-13 0)
(580 2.82021e-13 0)
(580 1.49598e-14 0)
(580 -2.09973e-13 0)
(580 -2.34352e-13 0)
(580 -1.33532e-13 0)
(580 -7.85021e-14 0)
(580 -9.32452e-16 0)
(580 1.11569e-13 0)
(580 2.04207e-13 0)
(580 3.21494e-13 0)
(579.999 4.02277e-13 0)
(579.994 2.77307e-13 0)
(579.977 1.83137e-14 0)
(579.907 -2.20282e-13 0)
(579.629 -3.6288e-13 0)
(578.559 2.75699e-14 0)
(574.735 4.60285e-13 0)
(563.692 -2.00683e-12 0)
(544.487 5.11811e-13 0)
(530.19 3.66573e-12 0)
(526.844 3.6433e-13 0)
(526.73 -5.29855e-13 0)
(526.809 -6.49357e-13 0)
(526.999 -4.48091e-14 0)
(527.103 -6.81471e-13 0)
(527.099 -8.17199e-13 0)
(527.046 -8.90775e-13 0)
(526.899 -3.37901e-13 0)
(526.653 4.46487e-14 0)
(526.365 -4.45528e-13 0)
(526.109 -1.13705e-13 0)
(525.929 -3.70624e-13 0)
(525.815 -6.30978e-14 0)
(525.739 5.16473e-13 0)
(525.679 6.7549e-13 0)
(525.627 6.26801e-13 0)
(525.578 1.84519e-13 0)
(525.531 -2.75618e-13 0)
(525.492 -5.65956e-13 0)
(525.47 2.52473e-13 0)
(525.471 9.22335e-15 0)
(525.494 6.88996e-13 0)
(525.516 -1.04679e-12 0)
(525.571 6.44193e-12 0)
(580 4.57027e-15 0)
(580 3.24906e-14 0)
(580 6.96934e-14 0)
(580 -4.96707e-16 0)
(580 7.32905e-14 0)
(580 2.08266e-14 0)
(580 8.45458e-15 0)
(580 4.02228e-14 0)
(580 1.21038e-13 0)
(580 1.31179e-13 0)
(580 4.73489e-13 0)
(580 4.97102e-13 0)
(580 4.77736e-13 0)
(580 8.3824e-13 0)
(580 9.16286e-13 0)
(580 1.07356e-12 0)
(580 1.07671e-12 0)
(580 8.6407e-13 0)
(580 2.85789e-13 0)
(580 -1.92487e-13 0)
(580 -4.30801e-13 0)
(580 -5.65201e-13 0)
(580 -5.68372e-13 0)
(580 -3.31558e-13 0)
(580 7.94525e-14 0)
(580 1.12678e-13 0)
(580 2.21961e-13 0)
(580 2.13616e-13 0)
(580 -1.3634e-13 0)
(580 1.80055e-13 0)
(580 8.34495e-13 0)
(580 7.64705e-13 0)
(580 5.42221e-13 0)
(580 4.04122e-13 0)
(580 2.0173e-13 0)
(580 1.6294e-13 0)
(580 3.09055e-14 0)
(580 -8.45335e-14 0)
(580 -1.03774e-13 0)
(580 -3.09023e-14 0)
(580 8.99114e-15 0)
(580 1.23768e-13 0)
(580 1.86855e-13 0)
(580 1.91134e-13 0)
(580 1.92658e-13 0)
(580 2.52881e-13 0)
(579.999 3.89977e-13 0)
(579.994 5.27058e-13 0)
(579.977 4.94767e-13 0)
(579.907 3.07521e-13 0)
(579.629 6.48636e-14 0)
(578.559 2.15901e-13 0)
(574.735 5.59099e-13 0)
(563.692 -1.62638e-12 0)
(544.487 7.87779e-13 0)
(530.19 3.98993e-12 0)
(526.844 -1.25238e-13 0)
(526.73 -7.93539e-13 0)
(526.809 -7.40497e-13 0)
(526.999 -4.02338e-13 0)
(527.103 -7.84595e-13 0)
(527.099 -7.71983e-13 0)
(527.046 -7.88215e-13 0)
(526.899 -2.2727e-13 0)
(526.653 -8.38748e-13 0)
(526.365 -7.55222e-13 0)
(526.109 7.60744e-13 0)
(525.929 -2.63248e-14 0)
(525.815 -1.92486e-13 0)
(525.739 -3.0202e-13 0)
(525.679 1.53191e-13 0)
(525.627 9.6448e-14 0)
(525.578 5.72574e-14 0)
(525.531 7.37261e-14 0)
(525.492 -1.99582e-13 0)
(525.47 1.46675e-14 0)
(525.471 5.00188e-13 0)
(525.494 7.1118e-13 0)
(525.516 2.16344e-12 0)
(525.571 -4.75525e-12 0)
(580 8.30803e-15 0)
(580 7.04298e-14 0)
(580 -1.46432e-13 0)
(580 -2.8393e-13 0)
(580 -3.13549e-13 0)
(580 -1.4952e-13 0)
(580 1.28519e-13 0)
(580 3.10336e-13 0)
(580 2.11283e-13 0)
(580 2.14507e-13 0)
(580 1.06577e-13 0)
(580 1.75432e-13 0)
(580 3.23506e-13 0)
(580 4.60806e-13 0)
(580 3.98386e-13 0)
(580 5.51419e-13 0)
(580 6.23848e-13 0)
(580 5.17937e-13 0)
(580 5.2789e-13 0)
(580 3.74919e-13 0)
(580 -2.89461e-13 0)
(580 -2.28205e-13 0)
(580 -7.04022e-13 0)
(580 -9.25624e-13 0)
(580 -8.61472e-13 0)
(580 -4.9819e-13 0)
(580 -1.32353e-13 0)
(580 -7.48868e-14 0)
(580 2.81815e-13 0)
(580 6.73764e-13 0)
(580 7.44933e-13 0)
(580 6.63818e-13 0)
(580 5.47953e-13 0)
(580 6.5668e-13 0)
(580 -1.50535e-13 0)
(580 -3.29026e-13 0)
(580 -4.0756e-13 0)
(580 -4.35197e-13 0)
(580 -3.87067e-13 0)
(580 -2.7588e-13 0)
(580 -1.18776e-13 0)
(580 1.3277e-13 0)
(580 3.3925e-13 0)
(580 3.52926e-13 0)
(580 3.41511e-13 0)
(580 3.86961e-13 0)
(579.999 4.24787e-13 0)
(579.994 4.79022e-13 0)
(579.977 3.51547e-13 0)
(579.907 1.30939e-13 0)
(579.629 -1.26665e-13 0)
(578.559 -2.23178e-13 0)
(574.735 -3.52143e-13 0)
(563.692 -1.89038e-12 0)
(544.487 5.59879e-13 0)
(530.19 2.98749e-12 0)
(526.844 -4.97719e-14 0)
(526.73 -4.44484e-13 0)
(526.809 -4.13899e-13 0)
(526.999 -8.24926e-13 0)
(527.103 -7.11406e-13 0)
(527.099 -6.5239e-13 0)
(527.046 -6.99665e-13 0)
(526.899 -3.06661e-13 0)
(526.653 -1.24004e-12 0)
(526.365 -5.79799e-13 0)
(526.109 7.95287e-13 0)
(525.929 3.84253e-14 0)
(525.815 -1.28298e-13 0)
(525.739 -4.96483e-13 0)
(525.679 -5.79133e-13 0)
(525.627 -5.84141e-13 0)
(525.578 -3.09704e-13 0)
(525.531 3.4174e-13 0)
(525.492 6.89587e-14 0)
(525.47 2.92461e-14 0)
(525.471 3.80974e-13 0)
(525.494 5.92968e-13 0)
(525.516 -3.63648e-13 0)
(525.571 5.10528e-12 0)
(580 -1.71564e-14 0)
(580 -6.04736e-14 0)
(580 -1.75678e-13 0)
(580 -1.135e-13 0)
(580 -3.13042e-13 0)
(580 -4.9306e-13 0)
(580 -3.82706e-13 0)
(580 -3.15496e-13 0)
(580 -1.64288e-13 0)
(580 -1.45871e-13 0)
(580 -5.52763e-14 0)
(580 7.45171e-14 0)
(580 3.21366e-14 0)
(580 -2.63046e-14 0)
(580 -2.55279e-14 0)
(580 -1.315e-13 0)
(580 -1.25331e-13 0)
(580 2.97093e-13 0)
(580 3.67703e-13 0)
(580 3.19972e-13 0)
(580 3.38301e-13 0)
(580 3.21195e-13 0)
(580 -6.11708e-13 0)
(580 -1.01984e-12 0)
(580 -1.11772e-12 0)
(580 -8.83782e-13 0)
(580 -3.77856e-13 0)
(580 1.37103e-13 0)
(580 4.17605e-13 0)
(580 3.6991e-13 0)
(580 2.08889e-13 0)
(580 3.56581e-14 0)
(580 1.4184e-14 0)
(580 2.96208e-13 0)
(580 1.02498e-13 0)
(580 1.62208e-14 0)
(580 -1.12648e-13 0)
(580 -1.5288e-13 0)
(580 -1.157e-13 0)
(580 1.64703e-14 0)
(580 2.63939e-13 0)
(580 4.70242e-13 0)
(580 5.85136e-13 0)
(580 6.31259e-13 0)
(580 6.18708e-13 0)
(580 4.8289e-13 0)
(579.999 3.89282e-13 0)
(579.994 2.73292e-13 0)
(579.977 1.3202e-13 0)
(579.907 -5.22686e-14 0)
(579.629 -2.27615e-13 0)
(578.559 -3.33755e-13 0)
(574.735 -9.38194e-13 0)
(563.692 -1.87873e-12 0)
(544.487 1.25891e-12 0)
(530.19 1.74739e-12 0)
(526.844 -2.72568e-13 0)
(526.73 -1.66579e-13 0)
(526.809 -1.79599e-13 0)
(526.999 -1.00887e-12 0)
(527.103 -7.86105e-13 0)
(527.099 -7.94214e-13 0)
(527.046 -7.02152e-13 0)
(526.899 -5.54138e-13 0)
(526.653 -1.41994e-12 0)
(526.365 -3.85095e-13 0)
(526.109 1.51533e-13 0)
(525.929 -2.5508e-13 0)
(525.815 2.44629e-13 0)
(525.739 1.1715e-13 0)
(525.679 -8.97328e-13 0)
(525.627 -7.91064e-13 0)
(525.578 -6.03119e-13 0)
(525.531 2.95267e-13 0)
(525.492 5.44709e-13 0)
(525.47 2.5993e-13 0)
(525.471 1.56105e-13 0)
(525.494 5.04869e-13 0)
(525.516 1.28403e-14 0)
(525.571 2.48815e-12 0)
(580 2.12548e-14 0)
(580 3.92965e-14 0)
(580 1.63613e-13 0)
(580 1.2872e-13 0)
(580 6.08032e-14 0)
(580 -2.07424e-14 0)
(580 -1.95083e-13 0)
(580 -1.6818e-13 0)
(580 -1.80813e-13 0)
(580 -1.77366e-13 0)
(580 -5.17021e-14 0)
(580 -1.25449e-13 0)
(580 -1.88655e-13 0)
(580 -3.39578e-13 0)
(580 -4.08688e-13 0)
(580 -5.62749e-13 0)
(580 -4.44519e-13 0)
(580 -1.75298e-13 0)
(580 1.38774e-13 0)
(580 5.2654e-13 0)
(580 7.6178e-13 0)
(580 8.00493e-13 0)
(580 5.78834e-13 0)
(580 1.49953e-13 0)
(580 2.95059e-13 0)
(580 3.39834e-13 0)
(580 6.18198e-13 0)
(580 9.71946e-13 0)
(580 9.48131e-13 0)
(580 7.64789e-13 0)
(580 5.34826e-13 0)
(580 4.17451e-13 0)
(580 2.93989e-13 0)
(580 1.35192e-13 0)
(580 2.96434e-13 0)
(580 3.41718e-13 0)
(580 3.8444e-13 0)
(580 5.50719e-13 0)
(580 8.72344e-13 0)
(580 1.02853e-12 0)
(580 1.03685e-12 0)
(580 9.64808e-13 0)
(580 8.78328e-13 0)
(580 7.43229e-13 0)
(580 5.99971e-13 0)
(580 4.25085e-13 0)
(579.999 2.61642e-13 0)
(579.994 1.69056e-13 0)
(579.977 2.36472e-13 0)
(579.907 2.4523e-13 0)
(579.629 2.5504e-13 0)
(578.559 3.74321e-13 0)
(574.735 -2.87276e-13 0)
(563.692 -8.3114e-13 0)
(544.487 2.45246e-12 0)
(530.19 1.0101e-12 0)
(526.844 -1.00768e-13 0)
(526.73 -1.84527e-14 0)
(526.809 -2.44822e-14 0)
(526.999 -8.16944e-13 0)
(527.103 -6.60525e-13 0)
(527.099 -5.62105e-13 0)
(527.046 -2.92565e-13 0)
(526.899 -5.03166e-13 0)
(526.653 -1.25816e-12 0)
(526.365 -2.2658e-13 0)
(526.109 -4.36103e-13 0)
(525.929 -2.24169e-13 0)
(525.815 6.43721e-13 0)
(525.739 7.14937e-13 0)
(525.679 -3.33037e-14 0)
(525.627 -5.5564e-13 0)
(525.578 -5.35379e-13 0)
(525.531 -1.79932e-13 0)
(525.492 4.25619e-13 0)
(525.47 2.98546e-14 0)
(525.471 3.96027e-13 0)
(525.494 4.70376e-13 0)
(525.516 3.58347e-12 0)
(525.571 -9.34138e-12 0)
(580 2.12904e-14 0)
(580 1.24598e-13 0)
(580 1.44067e-13 0)
(580 1.64553e-13 0)
(580 2.62415e-13 0)
(580 3.45564e-13 0)
(580 1.54471e-13 0)
(580 5.72473e-14 0)
(580 -1.63512e-13 0)
(580 -2.8515e-13 0)
(580 -4.237e-13 0)
(580 -3.99185e-13 0)
(580 -4.22188e-13 0)
(580 -4.27421e-13 0)
(580 -7.91456e-13 0)
(580 -7.49269e-13 0)
(580 -7.05768e-13 0)
(580 -5.21499e-13 0)
(580 -4.27798e-13 0)
(580 8.1363e-14 0)
(580 5.26714e-13 0)
(580 7.46898e-13 0)
(580 1.03037e-12 0)
(580 1.28956e-12 0)
(580 1.67345e-12 0)
(580 1.63559e-12 0)
(580 1.64173e-12 0)
(580 1.55463e-12 0)
(580 1.4772e-12 0)
(580 1.44316e-12 0)
(580 1.20436e-12 0)
(580 1.01711e-12 0)
(580 8.65585e-13 0)
(580 5.90893e-13 0)
(580 9.70609e-13 0)
(580 1.01628e-12 0)
(580 1.07917e-12 0)
(580 1.11479e-12 0)
(580 1.11291e-12 0)
(580 1.0603e-12 0)
(580 9.3787e-13 0)
(580 8.0072e-13 0)
(580 6.66468e-13 0)
(580 5.41728e-13 0)
(580 3.83318e-13 0)
(580 2.58651e-13 0)
(579.999 1.33691e-13 0)
(579.994 1.11025e-13 0)
(579.977 3.31614e-13 0)
(579.907 6.95142e-13 0)
(579.629 1.04211e-12 0)
(578.559 1.17749e-12 0)
(574.735 6.15357e-13 0)
(563.692 6.29336e-13 0)
(544.487 2.83457e-12 0)
(530.19 3.06016e-13 0)
(526.844 3.24055e-13 0)
(526.73 2.07019e-13 0)
(526.809 1.79768e-13 0)
(526.999 1.85851e-13 0)
(527.103 3.54292e-13 0)
(527.099 3.0841e-13 0)
(527.046 4.11853e-13 0)
(526.899 6.44785e-14 0)
(526.653 -5.89489e-13 0)
(526.365 -3.05392e-13 0)
(526.109 -4.54138e-14 0)
(525.929 4.85185e-13 0)
(525.815 -1.53518e-14 0)
(525.739 2.30342e-13 0)
(525.679 3.82727e-14 0)
(525.627 9.0861e-14 0)
(525.578 3.22833e-14 0)
(525.531 2.06912e-14 0)
(525.492 -4.68961e-13 0)
(525.47 8.64048e-14 0)
(525.471 -8.80789e-13 0)
(525.494 7.1239e-13 0)
(525.516 -3.08791e-12 0)
(525.571 1.58194e-11 0)
(580 -3.98289e-14 0)
(580 -1.34742e-13 0)
(580 -3.37486e-13 0)
(580 -2.07043e-13 0)
(580 -1.79299e-13 0)
(580 -2.04783e-13 0)
(580 -1.96898e-13 0)
(580 -3.41828e-13 0)
(580 -2.88277e-13 0)
(580 -3.72202e-13 0)
(580 -4.43461e-13 0)
(580 -3.61768e-13 0)
(580 -3.10697e-13 0)
(580 -2.72365e-13 0)
(580 -1.08832e-13 0)
(580 -9.11019e-14 0)
(580 1.6426e-14 0)
(580 2.17274e-13 0)
(580 4.29532e-13 0)
(580 7.53604e-13 0)
(580 1.13902e-12 0)
(580 1.37085e-12 0)
(580 1.88724e-12 0)
(580 2.05749e-12 0)
(580 1.86332e-12 0)
(580 1.91384e-12 0)
(580 1.68248e-12 0)
(580 1.52861e-12 0)
(580 1.54425e-12 0)
(580 1.48182e-12 0)
(580 1.12099e-12 0)
(580 9.78665e-13 0)
(580 8.97963e-13 0)
(580 8.87429e-13 0)
(580 1.391e-12 0)
(580 1.55031e-12 0)
(580 1.72064e-12 0)
(580 1.84566e-12 0)
(580 1.76263e-12 0)
(580 1.59139e-12 0)
(580 1.30325e-12 0)
(580 9.35694e-13 0)
(580 6.34467e-13 0)
(580 5.36816e-13 0)
(580 5.17052e-13 0)
(580 4.26728e-13 0)
(579.999 3.68936e-13 0)
(579.994 3.2479e-13 0)
(579.977 4.32294e-13 0)
(579.907 8.33712e-13 0)
(579.629 1.26536e-12 0)
(578.559 1.31499e-12 0)
(574.735 9.86154e-13 0)
(563.692 1.44601e-12 0)
(544.487 1.4767e-12 0)
(530.19 1.42876e-12 0)
(526.844 5.6603e-13 0)
(526.73 5.41135e-13 0)
(526.809 5.66705e-13 0)
(526.999 1.22944e-12 0)
(527.103 9.17244e-13 0)
(527.099 7.84765e-13 0)
(527.046 7.19105e-13 0)
(526.899 3.41721e-13 0)
(526.653 4.76182e-13 0)
(526.365 2.37158e-13 0)
(526.109 2.11518e-13 0)
(525.929 1.48629e-13 0)
(525.815 -1.56176e-13 0)
(525.739 -2.83008e-13 0)
(525.679 -2.77321e-14 0)
(525.627 4.80734e-13 0)
(525.578 4.98175e-13 0)
(525.531 3.48656e-13 0)
(525.492 -1.66217e-13 0)
(525.47 -1.10548e-13 0)
(525.471 -2.25463e-13 0)
(525.494 2.84914e-13 0)
(525.516 -2.4032e-13 0)
(525.571 1.2417e-13 0)
(580 6.6152e-15 0)
(580 1.4577e-14 0)
(580 7.44677e-14 0)
(580 9.97854e-14 0)
(580 5.46905e-14 0)
(580 9.99643e-14 0)
(580 -9.9654e-14 0)
(580 -5.61142e-14 0)
(580 -9.10175e-15 0)
(580 -1.49029e-13 0)
(580 -1.43955e-13 0)
(580 -2.98049e-13 0)
(580 -2.54513e-13 0)
(580 -8.76984e-14 0)
(580 -3.25116e-14 0)
(580 2.00301e-13 0)
(580 3.64702e-13 0)
(580 3.76239e-13 0)
(580 6.50665e-13 0)
(580 1.02916e-12 0)
(580 1.30751e-12 0)
(580 1.54192e-12 0)
(580 1.53111e-12 0)
(580 1.6342e-12 0)
(580 1.67598e-12 0)
(580 1.84984e-12 0)
(580 1.9657e-12 0)
(580 1.88874e-12 0)
(580 1.96682e-12 0)
(580 1.8503e-12 0)
(580 1.82354e-12 0)
(580 1.7734e-12 0)
(580 1.79095e-12 0)
(580 1.96184e-12 0)
(580 1.75507e-12 0)
(580 1.72325e-12 0)
(580 1.60794e-12 0)
(580 1.47017e-12 0)
(580 1.40564e-12 0)
(580 1.32452e-12 0)
(580 1.22668e-12 0)
(580 1.12759e-12 0)
(580 1.0191e-12 0)
(580 8.93685e-13 0)
(580 6.98459e-13 0)
(580 6.0857e-13 0)
(579.999 6.94633e-13 0)
(579.994 9.06557e-13 0)
(579.977 1.095e-12 0)
(579.907 1.00937e-12 0)
(579.629 8.66693e-13 0)
(578.559 7.90506e-13 0)
(574.735 6.46861e-13 0)
(563.692 6.71741e-13 0)
(544.487 5.15956e-13 0)
(530.19 1.55087e-12 0)
(526.844 1.09754e-12 0)
(526.73 1.10581e-12 0)
(526.809 1.19933e-12 0)
(526.999 1.30381e-12 0)
(527.103 7.69245e-13 0)
(527.099 7.92374e-13 0)
(527.046 8.01002e-13 0)
(526.899 7.86349e-13 0)
(526.653 1.5181e-12 0)
(526.365 1.78985e-12 0)
(526.109 1.2514e-13 0)
(525.929 1.65108e-14 0)
(525.815 5.49321e-13 0)
(525.739 -2.4006e-14 0)
(525.679 -8.40398e-14 0)
(525.627 -9.54352e-14 0)
(525.578 3.80258e-13 0)
(525.531 -1.91487e-13 0)
(525.492 1.11788e-13 0)
(525.47 -4.43061e-13 0)
(525.471 8.60416e-13 0)
(525.494 6.9702e-14 0)
(525.516 2.83138e-12 0)
(525.571 -8.70189e-12 0)
(580 -1.56786e-14 0)
(580 1.27094e-13 0)
(580 2.25273e-13 0)
(580 1.59827e-13 0)
(580 5.24869e-14 0)
(580 6.70165e-14 0)
(580 2.53025e-14 0)
(580 -4.58526e-15 0)
(580 -1.64542e-13 0)
(580 -2.37795e-13 0)
(580 -2.38695e-13 0)
(580 -1.97737e-13 0)
(580 -1.33757e-13 0)
(580 -9.66697e-15 0)
(580 7.2344e-14 0)
(580 3.65212e-14 0)
(580 1.88874e-14 0)
(580 -4.97383e-14 0)
(580 -1.24039e-15 0)
(580 2.55337e-14 0)
(580 1.31934e-15 0)
(580 1.22968e-13 0)
(580 3.36062e-13 0)
(580 5.90991e-13 0)
(580 8.64313e-13 0)
(580 1.16444e-12 0)
(580 1.44141e-12 0)
(580 1.8917e-12 0)
(580 2.04084e-12 0)
(580 2.17329e-12 0)
(580 2.3674e-12 0)
(580 2.46819e-12 0)
(580 2.6699e-12 0)
(580 2.68638e-12 0)
(580 2.03818e-12 0)
(580 1.87744e-12 0)
(580 1.71849e-12 0)
(580 1.49523e-12 0)
(580 1.27086e-12 0)
(580 1.12569e-12 0)
(580 1.10473e-12 0)
(580 1.16037e-12 0)
(580 1.09215e-12 0)
(580 8.22529e-13 0)
(580 5.81711e-13 0)
(580 5.5994e-13 0)
(579.999 5.50735e-13 0)
(579.994 5.61461e-13 0)
(579.977 4.69125e-13 0)
(579.907 2.08433e-13 0)
(579.629 8.0097e-14 0)
(578.559 3.26502e-13 0)
(574.735 5.56526e-13 0)
(563.692 -7.77559e-13 0)
(544.487 -4.01133e-14 0)
(530.19 2.31191e-12 0)
(526.844 9.9738e-13 0)
(526.73 8.11372e-13 0)
(526.809 8.78465e-13 0)
(526.999 6.91647e-13 0)
(527.103 4.26295e-13 0)
(527.099 4.17682e-13 0)
(527.046 3.83251e-13 0)
(526.899 5.81683e-13 0)
(526.653 1.4122e-12 0)
(526.365 1.01027e-12 0)
(526.109 1.08635e-13 0)
(525.929 1.13494e-12 0)
(525.815 8.52737e-13 0)
(525.739 7.19127e-13 0)
(525.679 -1.54545e-13 0)
(525.627 -2.84194e-13 0)
(525.578 2.97128e-13 0)
(525.531 -3.86054e-13 0)
(525.492 -1.51205e-13 0)
(525.47 -2.86964e-14 0)
(525.471 8.46485e-13 0)
(525.494 2.02507e-13 0)
(525.516 1.45113e-12 0)
(525.571 -3.51915e-12 0)
(580 6.03306e-15 0)
(580 -8.20459e-14 0)
(580 -1.49655e-13 0)
(580 -3.1278e-13 0)
(580 -4.04351e-13 0)
(580 -4.83803e-13 0)
(580 -4.65045e-13 0)
(580 -6.06744e-13 0)
(580 -8.20776e-13 0)
(580 -8.26985e-13 0)
(580 -6.62739e-13 0)
(580 -5.64764e-13 0)
(580 -4.81599e-13 0)
(580 -2.89849e-13 0)
(580 -1.78476e-13 0)
(580 -1.8863e-13 0)
(580 -1.10203e-13 0)
(580 2.27025e-14 0)
(580 -1.32814e-14 0)
(580 -3.89564e-14 0)
(580 -3.46046e-14 0)
(580 5.11006e-15 0)
(580 2.57644e-13 0)
(580 3.97461e-13 0)
(580 5.08623e-13 0)
(580 5.38633e-13 0)
(580 6.67793e-13 0)
(580 7.597e-13 0)
(580 1.12896e-12 0)
(580 1.21073e-12 0)
(580 1.47755e-12 0)
(580 1.71793e-12 0)
(580 2.14868e-12 0)
(580 2.82932e-12 0)
(580 2.22448e-12 0)
(580 2.01475e-12 0)
(580 1.74436e-12 0)
(580 1.50031e-12 0)
(580 1.25585e-12 0)
(580 9.86215e-13 0)
(580 8.13631e-13 0)
(580 7.64154e-13 0)
(580 8.45558e-13 0)
(580 9.33511e-13 0)
(580 1.01461e-12 0)
(580 8.04706e-13 0)
(579.999 1.94047e-13 0)
(579.994 -5.01314e-13 0)
(579.977 -9.39773e-13 0)
(579.907 -9.00818e-13 0)
(579.629 -7.11258e-13 0)
(578.559 -1.53802e-13 0)
(574.735 2.01403e-13 0)
(563.692 -9.20582e-13 0)
(544.487 -1.02051e-12 0)
(530.19 3.93889e-13 0)
(526.844 4.04857e-13 0)
(526.73 4.00281e-13 0)
(526.809 3.18405e-13 0)
(526.999 -1.32002e-13 0)
(527.103 9.13479e-14 0)
(527.099 1.73625e-13 0)
(527.046 -1.79599e-14 0)
(526.899 -2.52131e-14 0)
(526.653 5.13725e-13 0)
(526.365 9.64856e-14 0)
(526.109 -2.76378e-13 0)
(525.929 3.48742e-13 0)
(525.815 1.02197e-12 0)
(525.739 1.3456e-12 0)
(525.679 6.82874e-13 0)
(525.627 1.37267e-14 0)
(525.578 1.42606e-13 0)
(525.531 3.97455e-13 0)
(525.492 3.25878e-13 0)
(525.47 3.23883e-13 0)
(525.471 5.11642e-13 0)
(525.494 -1.11888e-13 0)
(525.516 2.36659e-14 0)
(525.571 -1.55605e-12 0)
(580 2.25208e-14 0)
(580 3.11609e-14 0)
(580 4.4529e-14 0)
(580 7.96694e-14 0)
(580 9.40368e-14 0)
(580 -3.54175e-15 0)
(580 -3.75756e-14 0)
(580 -7.08702e-14 0)
(580 -2.11213e-13 0)
(580 -2.95274e-13 0)
(580 -3.3652e-13 0)
(580 -2.83326e-13 0)
(580 -2.05983e-13 0)
(580 -2.76932e-13 0)
(580 -2.99127e-13 0)
(580 -1.3467e-13 0)
(580 9.21747e-14 0)
(580 3.86086e-13 0)
(580 4.10115e-13 0)
(580 3.97284e-13 0)
(580 4.47006e-13 0)
(580 5.62728e-13 0)
(580 6.22414e-13 0)
(580 6.23179e-13 0)
(580 7.18065e-13 0)
(580 7.38374e-13 0)
(580 7.24932e-13 0)
(580 6.82217e-13 0)
(580 8.21341e-13 0)
(580 9.26291e-13 0)
(580 1.08468e-12 0)
(580 1.17521e-12 0)
(580 1.45607e-12 0)
(580 1.85285e-12 0)
(580 1.81135e-12 0)
(580 1.73375e-12 0)
(580 1.65465e-12 0)
(580 1.44096e-12 0)
(580 1.10026e-12 0)
(580 7.25022e-13 0)
(580 4.84635e-13 0)
(580 5.08328e-13 0)
(580 5.87131e-13 0)
(580 6.46012e-13 0)
(580 6.68235e-13 0)
(580 4.90044e-13 0)
(579.999 2.88614e-13 0)
(579.994 7.98175e-14 0)
(579.977 -2.61437e-14 0)
(579.907 -4.90966e-14 0)
(579.629 -1.46701e-13 0)
(578.559 -8.64762e-14 0)
(574.735 2.37903e-13 0)
(563.692 -6.78963e-13 0)
(544.487 -1.12875e-12 0)
(530.19 -8.64065e-13 0)
(526.844 -1.55778e-13 0)
(526.73 -3.59653e-14 0)
(526.809 -2.10108e-13 0)
(526.999 -6.30287e-13 0)
(527.103 6.99566e-14 0)
(527.099 1.57339e-13 0)
(527.046 -5.489e-14 0)
(526.899 -8.73748e-14 0)
(526.653 1.6891e-13 0)
(526.365 -3.32213e-13 0)
(526.109 -3.39778e-13 0)
(525.929 -3.05518e-13 0)
(525.815 5.60716e-13 0)
(525.739 1.09658e-12 0)
(525.679 1.07613e-12 0)
(525.627 8.53887e-13 0)
(525.578 -1.60309e-13 0)
(525.531 -1.6791e-14 0)
(525.492 5.08349e-13 0)
(525.47 5.27585e-13 0)
(525.471 -9.09431e-13 0)
(525.494 -1.86177e-13 0)
(525.516 -2.36834e-12 0)
(525.571 5.93885e-12 0)
(580 -6.55934e-14 0)
(580 1.98784e-14 0)
(580 1.46801e-13 0)
(580 2.37381e-13 0)
(580 5.32964e-13 0)
(580 4.78678e-13 0)
(580 3.63603e-13 0)
(580 3.15342e-13 0)
(580 3.19238e-13 0)
(580 4.56418e-13 0)
(580 6.34952e-13 0)
(580 5.77297e-13 0)
(580 4.00604e-13 0)
(580 3.82635e-13 0)
(580 4.26923e-13 0)
(580 3.88076e-13 0)
(580 2.87998e-13 0)
(580 3.03858e-13 0)
(580 3.12188e-13 0)
(580 4.95408e-13 0)
(580 5.31391e-13 0)
(580 5.03972e-13 0)
(580 3.40127e-13 0)
(580 1.40637e-13 0)
(580 5.66548e-14 0)
(580 7.50912e-14 0)
(580 3.81886e-14 0)
(580 -1.54535e-14 0)
(580 5.20519e-14 0)
(580 1.62955e-13 0)
(580 3.92167e-13 0)
(580 4.94504e-13 0)
(580 4.95471e-13 0)
(580 4.57913e-13 0)
(580 8.48097e-13 0)
(580 8.9754e-13 0)
(580 8.95533e-13 0)
(580 7.40604e-13 0)
(580 5.86226e-13 0)
(580 5.07074e-13 0)
(580 2.86329e-13 0)
(580 8.70113e-14 0)
(580 -7.1697e-14 0)
(580 -1.22694e-13 0)
(580 -1.92977e-13 0)
(580 -2.56407e-13 0)
(579.999 -1.74265e-13 0)
(579.994 -6.36116e-15 0)
(579.977 6.02046e-14 0)
(579.907 -1.97871e-14 0)
(579.629 -2.48258e-13 0)
(578.559 -4.83048e-13 0)
(574.735 -1.24506e-13 0)
(563.692 -1.34214e-13 0)
(544.487 -5.75339e-13 0)
(530.19 -1.56251e-12 0)
(526.844 -3.89118e-13 0)
(526.73 -6.61724e-14 0)
(526.809 -7.82619e-14 0)
(526.999 -2.61272e-13 0)
(527.103 -9.78462e-15 0)
(527.099 2.16644e-14 0)
(527.046 1.84662e-13 0)
(526.899 2.1294e-13 0)
(526.653 5.67423e-13 0)
(526.365 2.14552e-13 0)
(526.109 -3.94026e-13 0)
(525.929 6.11328e-14 0)
(525.815 5.43227e-13 0)
(525.739 3.46445e-13 0)
(525.679 5.24743e-13 0)
(525.627 7.46146e-13 0)
(525.578 -3.61011e-14 0)
(525.531 4.5717e-14 0)
(525.492 -1.03959e-13 0)
(525.47 5.00347e-13 0)
(525.471 -4.74558e-13 0)
(525.494 -1.89391e-13 0)
(525.516 -1.79374e-12 0)
(525.571 5.4947e-12 0)
(580 -2.3306e-14 0)
(580 -1.05144e-13 0)
(580 -1.70879e-13 0)
(580 -1.9622e-13 0)
(580 -2.16188e-13 0)
(580 -6.71402e-14 0)
(580 -2.48483e-14 0)
(580 2.24644e-13 0)
(580 3.98137e-13 0)
(580 4.61718e-13 0)
(580 4.96273e-13 0)
(580 4.27972e-13 0)
(580 4.09896e-13 0)
(580 3.76956e-13 0)
(580 4.07037e-13 0)
(580 3.48873e-13 0)
(580 2.46533e-13 0)
(580 2.38238e-13 0)
(580 2.76365e-13 0)
(580 3.96309e-13 0)
(580 3.80924e-13 0)
(580 2.93117e-13 0)
(580 1.49587e-13 0)
(580 1.36776e-13 0)
(580 7.69342e-14 0)
(580 5.76127e-14 0)
(580 1.11289e-13 0)
(580 -1.08242e-14 0)
(580 3.3919e-14 0)
(580 1.28382e-13 0)
(580 1.89788e-13 0)
(580 2.3354e-13 0)
(580 4.52072e-14 0)
(580 -2.53716e-13 0)
(580 8.74003e-13 0)
(580 1.08945e-12 0)
(580 1.0635e-12 0)
(580 8.9488e-13 0)
(580 6.89043e-13 0)
(580 5.9361e-13 0)
(580 5.49702e-13 0)
(580 3.11721e-13 0)
(580 -5.21052e-14 0)
(580 -3.07461e-13 0)
(580 -4.01804e-13 0)
(580 -1.69383e-13 0)
(579.999 1.89246e-13 0)
(579.994 4.36498e-13 0)
(579.977 3.86246e-13 0)
(579.907 1.06368e-13 0)
(579.629 -2.98681e-13 0)
(578.559 -8.64561e-13 0)
(574.735 -1.01833e-12 0)
(563.692 1.0069e-12 0)
(544.487 -3.52544e-13 0)
(530.19 -2.88599e-12 0)
(526.844 -4.14394e-13 0)
(526.73 -4.75605e-14 0)
(526.809 1.05456e-13 0)
(526.999 7.37202e-14 0)
(527.103 -1.66715e-13 0)
(527.099 -8.28133e-14 0)
(527.046 1.89638e-13 0)
(526.899 2.71972e-13 0)
(526.653 4.85394e-13 0)
(526.365 5.61512e-13 0)
(526.109 4.55003e-13 0)
(525.929 2.76277e-13 0)
(525.815 3.87759e-13 0)
(525.739 -2.63215e-13 0)
(525.679 -1.65614e-13 0)
(525.627 2.27475e-13 0)
(525.578 -2.55442e-15 0)
(525.531 -4.2963e-13 0)
(525.492 1.30822e-13 0)
(525.47 -1.44303e-13 0)
(525.471 3.79877e-13 0)
(525.494 -6.7871e-13 0)
(525.516 1.75982e-12 0)
(525.571 -8.29244e-12 0)
(580 3.54368e-14 0)
(580 8.8583e-14 0)
(580 3.22e-14 0)
(580 2.18144e-14 0)
(580 -1.74581e-13 0)
(580 -1.5242e-13 0)
(580 1.50144e-14 0)
(580 8.80288e-14 0)
(580 9.11501e-14 0)
(580 4.52077e-14 0)
(580 -2.41822e-13 0)
(580 -2.88453e-13 0)
(580 -1.66534e-14 0)
(580 8.77356e-14 0)
(580 6.38633e-14 0)
(580 1.65017e-13 0)
(580 3.14683e-13 0)
(580 4.54695e-13 0)
(580 4.55129e-13 0)
(580 4.23858e-13 0)
(580 3.07816e-13 0)
(580 2.23227e-13 0)
(580 1.71018e-13 0)
(580 1.7728e-13 0)
(580 1.27783e-13 0)
(580 1.82445e-13 0)
(580 9.86218e-14 0)
(580 2.7908e-13 0)
(580 2.95844e-13 0)
(580 6.14951e-13 0)
(580 6.38373e-13 0)
(580 5.57508e-13 0)
(580 2.20231e-13 0)
(580 -2.70151e-13 0)
(580 5.65283e-13 0)
(580 7.75709e-13 0)
(580 9.52551e-13 0)
(580 1.01931e-12 0)
(580 9.12936e-13 0)
(580 7.11159e-13 0)
(580 4.7191e-13 0)
(580 1.88089e-13 0)
(580 3.03851e-14 0)
(580 -1.52863e-14 0)
(580 1.04424e-14 0)
(580 1.4414e-13 0)
(579.999 2.054e-13 0)
(579.994 2.17443e-13 0)
(579.977 2.22188e-13 0)
(579.907 1.96642e-13 0)
(579.629 4.75075e-14 0)
(578.559 -7.64458e-13 0)
(574.735 -1.2539e-12 0)
(563.692 1.98718e-12 0)
(544.487 -3.80781e-13 0)
(530.19 -2.6871e-12 0)
(526.844 -5.86167e-13 0)
(526.73 -3.38838e-13 0)
(526.809 -3.40916e-13 0)
(526.999 -2.65477e-14 0)
(527.103 -3.5022e-14 0)
(527.099 -2.62319e-14 0)
(527.046 -6.32661e-14 0)
(526.899 7.59232e-14 0)
(526.653 -2.88859e-14 0)
(526.365 4.88955e-14 0)
(526.109 9.06874e-13 0)
(525.929 3.25712e-13 0)
(525.815 2.66853e-13 0)
(525.739 3.65003e-13 0)
(525.679 1.0082e-13 0)
(525.627 1.90674e-13 0)
(525.578 2.69918e-13 0)
(525.531 -3.03101e-13 0)
(525.492 3.98518e-13 0)
(525.47 1.08897e-13 0)
(525.471 7.48026e-13 0)
(525.494 -3.39612e-13 0)
(525.516 1.32699e-12 0)
(525.571 -4.06739e-12 0)
(580 1.76494e-14 0)
(580 9.19249e-14 0)
(580 1.28162e-13 0)
(580 -3.58111e-14 0)
(580 -1.03825e-14 0)
(580 -8.66703e-15 0)
(580 -2.01077e-13 0)
(580 -4.46946e-13 0)
(580 -5.62048e-13 0)
(580 -5.55773e-13 0)
(580 -6.71051e-13 0)
(580 -6.88399e-13 0)
(580 -5.75056e-13 0)
(580 -5.93507e-13 0)
(580 -6.02401e-13 0)
(580 -4.46741e-13 0)
(580 -3.44888e-13 0)
(580 -2.95846e-13 0)
(580 -3.75008e-13 0)
(580 -3.89759e-13 0)
(580 -3.89178e-13 0)
(580 -3.26353e-13 0)
(580 -1.98734e-13 0)
(580 -1.16409e-13 0)
(580 3.92089e-14 0)
(580 2.0087e-13 0)
(580 3.82802e-13 0)
(580 4.45521e-13 0)
(580 6.80998e-13 0)
(580 7.41599e-13 0)
(580 9.88572e-13 0)
(580 9.90197e-13 0)
(580 8.07113e-13 0)
(580 6.07456e-13 0)
(580 4.14433e-13 0)
(580 4.11929e-13 0)
(580 5.2987e-13 0)
(580 6.85473e-13 0)
(580 6.4683e-13 0)
(580 2.75038e-13 0)
(580 -1.61874e-13 0)
(580 -3.64866e-13 0)
(580 -3.3862e-13 0)
(580 -2.36753e-13 0)
(580 -1.21164e-13 0)
(580 -7.20962e-14 0)
(579.999 -3.86593e-14 0)
(579.994 1.6025e-14 0)
(579.977 1.29456e-13 0)
(579.907 2.99197e-13 0)
(579.629 5.38645e-13 0)
(578.559 -7.02497e-14 0)
(574.735 -5.28922e-13 0)
(563.692 3.0681e-12 0)
(544.487 2.37465e-13 0)
(530.19 -3.37507e-12 0)
(526.844 -5.1043e-13 0)
(526.73 -1.6049e-13 0)
(526.809 -2.25597e-13 0)
(526.999 -4.48009e-13 0)
(527.103 3.81992e-13 0)
(527.099 4.3665e-13 0)
(527.046 3.66479e-13 0)
(526.899 3.75597e-13 0)
(526.653 2.04667e-13 0)
(526.365 2.48208e-13 0)
(526.109 -8.35595e-15 0)
(525.929 2.7079e-13 0)
(525.815 1.87509e-13 0)
(525.739 4.4883e-13 0)
(525.679 9.18394e-13 0)
(525.627 9.12496e-14 0)
(525.578 8.05227e-13 0)
(525.531 5.60124e-13 0)
(525.492 6.15271e-13 0)
(525.47 5.47905e-13 0)
(525.471 9.36809e-13 0)
(525.494 -1.06023e-13 0)
(525.516 -2.60371e-13 0)
(525.571 2.51498e-12 0)
(580 -8.17682e-14 0)
(580 -1.44164e-13 0)
(580 -1.73805e-13 0)
(580 -3.03944e-13 0)
(580 -2.15983e-13 0)
(580 -2.51835e-13 0)
(580 -2.84011e-13 0)
(580 -2.65844e-13 0)
(580 -2.41366e-13 0)
(580 -1.20781e-13 0)