/*--------------------------------*- C++ -*----------------------------------*\
| =========                 |                                                 |
| \\      /  F ield         | OpenFOAM: The Open Source CFD Toolbox           |
|  \\    /   O peration     | Version:  2306                                  |
|   \\  /    A nd           | Website:  www.openfoam.com                      |
|    \\/     M anipulation  |                                                 |
\*---------------------------------------------------------------------------*/
FoamFile
{
    version     2.0;
    format      ascii;
    arch        "LSB;label=32;scalar=64";
    class       volVectorField;
    location    "3e-05";
    object      U;
}
// * * * * * * * * * * * * * * * * * * * * * * * * * * * * * * * * * * * * * //

dimensions      [0 1 -1 0 0 0 0];

internalField   nonuniform List<vector> 
9044
(
(580 1.02647e-12 0)
(580 1.05237e-12 0)
(580 3.3672e-14 0)
(580 1.52672e-13 0)
(580 3.73181e-13 0)
(580 2.87035e-13 0)
(580 1.01704e-12 0)
(580 6.8815e-13 0)
(580 1.53497e-14 0)
(580 -5.5262e-14 0)
(580 -8.03424e-13 0)
(580 -7.8092e-13 0)
(580 -4.39269e-13 0)
(580 -4.40765e-13 0)
(580 3.95366e-13 0)
(580 2.32043e-13 0)
(580 2.38613e-13 0)
(580 1.05787e-13 0)
(580 -2.16508e-13 0)
(580 -1.32292e-13 0)
(580 -5.09415e-13 0)
(580 -4.4879e-13 0)
(580 -1.39136e-12 0)
(580 -1.48577e-12 0)
(580 -2.02762e-12 0)
(580 -2.12615e-12 0)
(580 -3.7151e-12 0)
(580 -3.72566e-12 0)
(580 -6.61789e-12 0)
(580 -6.55335e-12 0)
(580 -4.4308e-12 0)
(580 -4.50338e-12 0)
(580 -2.33365e-12 0)
(580 -2.26892e-12 0)
(580 -9.10449e-13 0)
(580 -4.6562e-12 0)
(580 -9.47394e-13 0)
(580 1.50882e-11 0)
(579.999 -2.49911e-11 0)
(579.995 -1.42658e-10 0)
(579.982 4.32805e-10 0)
(579.929 5.84945e-10 0)
(579.73 -5.95246e-09 0)
(579.04 1.43612e-08 0)
(580 1.85093e-13 0)
(580 4.33404e-13 0)
(580 3.38771e-13 0)
(580 6.86291e-13 0)
(580 8.72651e-13 0)
(580 1.33662e-12 0)
(580 1.7489e-12 0)
(580 2.4242e-12 0)
(580 2.61809e-12 0)
(580 2.75291e-12 0)
(580 3.01825e-12 0)
(580 2.92545e-12 0)
(580 2.99638e-12 0)
(580 3.40924e-12 0)
(580 3.38216e-12 0)
(580 3.53243e-12 0)
(580 3.96375e-12 0)
(580 4.19223e-12 0)
(580 4.33705e-12 0)
(580 4.22155e-12 0)
(580 2.79466e-12 0)
(580 2.25601e-12 0)
(580 2.13922e-12 0)
(580 1.67106e-12 0)
(580 2.07302e-12 0)
(580 1.45131e-12 0)
(580 7.98914e-13 0)
(580 5.81297e-13 0)
(580 4.31515e-13 0)
(580 5.51149e-13 0)
(580 7.83142e-13 0)
(580 1.00862e-12 0)
(580 7.76066e-13 0)
(580 2.41399e-13 0)
(580 1.62265e-13 0)
(580 -3.6759e-15 0)
(580 1.04427e-13 0)
(580 2.52543e-13 0)
(580 4.68897e-13 0)
(580 7.41878e-13 0)
(580 8.58064e-13 0)
(580 7.27288e-13 0)
(580 5.75459e-13 0)
(580 -3.78836e-13 0)
(580 -9.30048e-13 0)
(580 -1.46966e-12 0)
(580 -2.12043e-12 0)
(580 -2.52882e-12 0)
(580 -2.54454e-12 0)
(580 -2.77127e-12 0)
(580 -3.16745e-12 0)
(580 -3.64313e-12 0)
(580 -3.9599e-12 0)
(580 -3.96803e-12 0)
(580 -3.73972e-12 0)
(580 -3.46812e-12 0)
(580 -3.24792e-12 0)
(580 -3.14854e-12 0)
(580 -3.06441e-12 0)
(580 -3.04318e-12 0)
(580 -2.17388e-12 0)
(580 -4.72028e-12 0)
(580 -1.84888e-12 0)
(580 1.12337e-11 0)
(579.999 -1.57452e-11 0)
(579.995 -1.51925e-10 0)
(579.982 5.08681e-10 0)
(579.929 1.14759e-10 0)
(579.73 -4.58859e-09 0)
(579.04 1.24452e-08 0)
(580 7.76614e-13 0)
(580 6.76221e-13 0)
(580 5.57303e-13 0)
(580 7.23317e-13 0)
(580 1.26194e-12 0)
(580 2.03866e-12 0)
(580 2.15085e-12 0)
(580 2.29044e-12 0)
(580 2.46226e-12 0)
(580 3.15854e-12 0)
(580 3.44435e-12 0)
(580 3.5684e-12 0)
(580 3.60122e-12 0)
(580 3.47718e-12 0)
(580 3.47052e-12 0)
(580 3.29094e-12 0)
(580 3.51468e-12 0)
(580 3.71542e-12 0)
(580 4.06423e-12 0)
(580 4.45439e-12 0)
(580 3.90959e-12 0)
(580 3.59461e-12 0)
(580 3.26774e-12 0)
(580 2.46206e-12 0)
(580 2.21365e-12 0)
(580 1.72107e-12 0)
(580 1.01741e-12 0)
(580 3.66857e-13 0)
(580 2.56119e-13 0)
(580 -3.61202e-14 0)
(580 -7.16384e-13 0)
(580 -7.41288e-13 0)
(580 -7.60713e-13 0)
(580 -1.60523e-12 0)
(580 -2.32872e-12 0)
(580 -9.92537e-13 0)
(580 -2.19912e-13 0)
(580 9.40205e-13 0)
(580 1.02063e-12 0)
(580 3.75458e-13 0)
(580 2.31864e-13 0)
(580 -4.40211e-14 0)
(580 -9.15683e-14 0)
(580 -2.68617e-13 0)
(580 -1.15592e-13 0)
(580 -4.3125e-13 0)
(580 -7.2733e-13 0)
(580 -1.23465e-12 0)
(580 -1.76411e-12 0)
(580 -2.43491e-12 0)
(580 -3.16424e-12 0)
(580 -3.76574e-12 0)
(580 -4.325e-12 0)
(580 -4.71121e-12 0)
(580 -4.7683e-12 0)
(580 -4.6763e-12 0)
(580 -4.51721e-12 0)
(580 -4.28848e-12 0)
(580 -4.11871e-12 0)
(580 -3.94805e-12 0)
(580 -3.22652e-12 0)
(580 -5.05813e-12 0)
(580 -2.98119e-12 0)
(580 9.71214e-12 0)
(579.999 -8.54841e-12 0)
(579.995 -1.54566e-10 0)
(579.982 4.72077e-10 0)
(579.929 1.89424e-10 0)
(579.73 -4.46399e-09 0)
(579.04 1.1865e-08 0)
(580 4.4535e-13 0)
(580 4.14669e-13 0)
(580 5.68849e-13 0)
(580 5.85772e-13 0)
(580 6.62155e-13 0)
(580 9.33137e-13 0)
(580 1.2699e-12 0)
(580 2.1296e-12 0)
(580 2.53786e-12 0)
(580 2.61237e-12 0)
(580 3.447e-12 0)
(580 3.65518e-12 0)
(580 3.88194e-12 0)
(580 4.02657e-12 0)
(580 4.10475e-12 0)
(580 3.95731e-12 0)
(580 3.4971e-12 0)
(580 3.90578e-12 0)
(580 4.23874e-12 0)
(580 3.9283e-12 0)
(580 3.62504e-12 0)
(580 3.10947e-12 0)
(580 2.43247e-12 0)
(580 1.89348e-12 0)
(580 1.29943e-12 0)
(580 1.55391e-13 0)
(580 -1.83985e-13 0)
(580 -5.63345e-13 0)
(580 -9.13251e-13 0)
(580 -1.30009e-12 0)
(580 -2.06927e-12 0)
(580 -2.51818e-12 0)
(580 -2.50165e-12 0)
(580 -3.36629e-12 0)
(580 -3.4128e-12 0)
(580 -3.07842e-12 0)
(580 -2.67707e-12 0)
(580 -2.19003e-12 0)
(580 -1.92872e-12 0)
(580 -1.65778e-12 0)
(580 -1.75062e-12 0)
(580 -1.64728e-12 0)
(580 -1.26453e-12 0)
(580 -9.98947e-13 0)
(580 -1.15339e-12 0)
(580 -1.29493e-12 0)
(580 -1.35842e-12 0)
(580 -1.89055e-12 0)
(580 -2.60154e-12 0)
(580 -3.1762e-12 0)
(580 -3.77027e-12 0)
(580 -4.16465e-12 0)
(580 -4.54567e-12 0)
(580 -4.99115e-12 0)
(580 -5.45181e-12 0)
(580 -5.7367e-12 0)
(580 -5.7675e-12 0)
(580 -5.51667e-12 0)
(580 -5.07687e-12 0)
(580 -4.53694e-12 0)
(580 -3.83895e-12 0)
(580 -5.53718e-12 0)
(580 -3.73218e-12 0)
(580 7.53099e-12 0)
(579.999 2.73058e-12 0)
(579.995 -1.77576e-10 0)
(579.982 4.08468e-10 0)
(579.929 5.47763e-10 0)
(579.73 -4.60574e-09 0)
(579.04 1.05529e-08 0)
(580 9.55484e-13 0)
(580 9.66691e-13 0)
(580 9.14645e-13 0)
(580 7.93372e-13 0)
(580 9.02737e-13 0)
(580 1.29558e-12 0)
(580 1.56663e-12 0)
(580 1.65956e-12 0)
(580 1.68021e-12 0)
(580 1.87613e-12 0)
(580 2.55247e-12 0)
(580 2.75823e-12 0)
(580 3.30998e-12 0)
(580 3.9437e-12 0)
(580 4.24598e-12 0)
(580 4.4853e-12 0)
(580 4.52825e-12 0)
(580 4.39423e-12 0)
(580 4.21884e-12 0)
(580 3.73809e-12 0)
(580 3.18376e-12 0)
(580 2.48965e-12 0)
(580 1.97735e-12 0)
(580 1.59545e-12 0)
(580 6.49063e-13 0)
(580 -3.54539e-13 0)
(580 -1.23415e-12 0)
(580 -1.52922e-12 0)
(580 -1.87354e-12 0)
(580 -2.3477e-12 0)
(580 -2.93225e-12 0)
(580 -3.78412e-12 0)
(580 -4.39608e-12 0)
(580 -4.5542e-12 0)
(580 -4.59582e-12 0)
(580 -4.49243e-12 0)
(580 -4.37397e-12 0)
(580 -3.87783e-12 0)
(580 -3.65957e-12 0)
(580 -3.39578e-12 0)
(580 -2.79876e-12 0)
(580 -2.77153e-12 0)
(580 -2.41133e-12 0)
(580 -2.12203e-12 0)
(580 -2.29747e-12 0)
(580 -2.63857e-12 0)
(580 -2.73271e-12 0)
(580 -3.26207e-12 0)
(580 -3.72014e-12 0)
(580 -4.19224e-12 0)
(580 -4.5372e-12 0)
(580 -4.86345e-12 0)
(580 -5.28585e-12 0)
(580 -5.7936e-12 0)
(580 -6.39516e-12 0)
(580 -6.52701e-12 0)
(580 -6.0478e-12 0)
(580 -5.51682e-12 0)
(580 -5.14055e-12 0)
(580 -4.65164e-12 0)
(580 -4.07045e-12 0)
(580 -5.81056e-12 0)
(580 -4.90766e-12 0)
(580 9.00469e-12 0)
(579.999 6.1581e-12 0)
(579.995 -1.93551e-10 0)
(579.982 4.26214e-10 0)
(579.929 6.59625e-10 0)
(579.73 -4.74557e-09 0)
(579.04 9.86337e-09 0)
(580 1.60719e-12 0)
(580 1.7337e-12 0)
(580 1.90734e-12 0)
(580 2.08341e-12 0)
(580 2.01954e-12 0)
(580 1.8259e-12 0)
(580 1.42518e-12 0)
(580 1.13e-12 0)
(580 1.01145e-12 0)
(580 9.34204e-13 0)
(580 1.01761e-12 0)
(580 1.21476e-12 0)
(580 1.71369e-12 0)
(580 1.89503e-12 0)
(580 2.44801e-12 0)
(580 2.75631e-12 0)
(580 3.07257e-12 0)
(580 3.07203e-12 0)
(580 2.74066e-12 0)
(580 1.82943e-12 0)
(580 1.66374e-12 0)
(580 1.87735e-12 0)
(580 1.32294e-12 0)
(580 9.94206e-13 0)
(580 2.24595e-13 0)
(580 -7.90906e-13 0)
(580 -1.77907e-12 0)
(580 -2.64284e-12 0)
(580 -3.34788e-12 0)
(580 -3.91452e-12 0)
(580 -4.14988e-12 0)
(580 -3.97661e-12 0)
(580 -4.30174e-12 0)
(580 -4.4692e-12 0)
(580 -4.31362e-12 0)
(580 -4.14699e-12 0)
(580 -3.72955e-12 0)
(580 -3.86641e-12 0)
(580 -3.93932e-12 0)
(580 -3.89734e-12 0)
(580 -3.70248e-12 0)
(580 -3.82128e-12 0)
(580 -3.52234e-12 0)
(580 -3.36969e-12 0)
(580 -3.16839e-12 0)
(580 -3.2199e-12 0)
(580 -3.48668e-12 0)
(580 -3.73537e-12 0)
(580 -4.09509e-12 0)
(580 -4.39173e-12 0)
(580 -4.45851e-12 0)
(580 -4.65707e-12 0)
(580 -4.9192e-12 0)
(580 -5.2549e-12 0)
(580 -5.46671e-12 0)
(580 -5.66878e-12 0)
(580 -5.62958e-12 0)
(580 -5.4787e-12 0)
(580 -5.20048e-12 0)
(580 -4.85432e-12 0)
(580 -3.53575e-12 0)
(580 -5.75743e-12 0)
(580 -4.64647e-12 0)
(580 9.38879e-12 0)
(579.999 2.72243e-12 0)
(579.995 -1.62036e-10 0)
(579.982 2.70247e-10 0)
(579.929 6.91985e-10 0)
(579.73 -4.76175e-09 0)
(579.04 5.16786e-09 0)
(580 2.2251e-12 0)
(580 2.49178e-12 0)
(580 2.62229e-12 0)
(580 2.70034e-12 0)
(580 2.75214e-12 0)
(580 2.59161e-12 0)
(580 2.58263e-12 0)
(580 2.44197e-12 0)
(580 2.61279e-12 0)
(580 2.57049e-12 0)
(580 2.43859e-12 0)
(580 2.14313e-12 0)
(580 1.78374e-12 0)
(580 1.73898e-12 0)
(580 2.16457e-12 0)
(580 2.0216e-12 0)
(580 1.35903e-12 0)
(580 1.04244e-12 0)
(580 3.12054e-13 0)
(580 -3.01762e-13 0)
(580 -8.24424e-13 0)
(580 -1.03682e-12 0)
(580 -5.97237e-13 0)
(580 -9.01038e-13 0)
(580 -1.05942e-12 0)
(580 -1.50161e-12 0)
(580 -1.65243e-12 0)
(580 -1.94177e-12 0)
(580 -2.29438e-12 0)
(580 -2.54068e-12 0)
(580 -3.00547e-12 0)
(580 -3.17566e-12 0)
(580 -3.12673e-12 0)
(580 -3.09948e-12 0)
(580 -3.16372e-12 0)
(580 -3.25709e-12 0)
(580 -3.25052e-12 0)
(580 -3.13481e-12 0)
(580 -3.06597e-12 0)
(580 -3.01533e-12 0)
(580 -3.17627e-12 0)
(580 -3.56246e-12 0)
(580 -3.97113e-12 0)
(580 -4.33927e-12 0)
(580 -4.57911e-12 0)
(580 -4.49283e-12 0)
(580 -4.56145e-12 0)
(580 -4.99411e-12 0)
(580 -5.13441e-12 0)
(580 -5.23008e-12 0)
(580 -5.4279e-12 0)
(580 -5.71671e-12 0)
(580 -5.9075e-12 0)
(580 -5.91061e-12 0)
(580 -5.78872e-12 0)
(580 -5.52756e-12 0)
(580 -5.38973e-12 0)
(580 -5.17458e-12 0)
(580 -4.93543e-12 0)
(580 -4.42036e-12 0)
(580 -3.16422e-12 0)
(580 -5.34994e-12 0)
(580 -5.5052e-12 0)
(580 1.49668e-11 0)
(579.999 -3.19054e-11 0)
(579.995 -3.89954e-11 0)
(579.982 -5.8439e-11 0)
(579.929 1.07073e-09 0)
(579.73 -1.03808e-09 0)
(579.04 -3.39107e-09 0)
(580 3.30167e-12 0)
(580 3.36671e-12 0)
(580 3.46508e-12 0)
(580 3.4595e-12 0)
(580 3.44182e-12 0)
(580 3.35126e-12 0)
(580 3.32541e-12 0)
(580 3.26415e-12 0)
(580 3.12288e-12 0)
(580 3.05569e-12 0)
(580 2.7072e-12 0)
(580 2.32239e-12 0)
(580 1.7536e-12 0)
(580 1.38598e-12 0)
(580 8.22931e-13 0)
(580 1.25042e-13 0)
(580 -7.55125e-13 0)
(580 -1.0763e-12 0)
(580 -1.07134e-12 0)
(580 -1.08543e-12 0)
(580 -1.1781e-12 0)
(580 -1.38041e-12 0)
(580 -1.7389e-12 0)
(580 -1.66841e-12 0)
(580 -1.54185e-12 0)
(580 -1.48629e-12 0)
(580 -1.32723e-12 0)
(580 -1.01208e-12 0)
(580 -8.50371e-13 0)
(580 -1.03317e-12 0)
(580 -1.28684e-12 0)
(580 -1.33918e-12 0)
(580 -1.29263e-12 0)
(580 -1.408e-12 0)
(580 -1.4853e-12 0)
(580 -1.45048e-12 0)
(580 -2.11466e-12 0)
(580 -2.34988e-12 0)
(580 -2.53135e-12 0)
(580 -2.70509e-12 0)
(580 -3.20232e-12 0)
(580 -4.20706e-12 0)
(580 -5.22242e-12 0)
(580 -5.46744e-12 0)
(580 -5.53114e-12 0)
(580 -5.52169e-12 0)
(580 -5.58319e-12 0)
(580 -5.68248e-12 0)
(580 -5.84423e-12 0)
(580 -5.97759e-12 0)
(580 -6.35371e-12 0)
(580 -6.6696e-12 0)
(580 -6.73857e-12 0)
(580 -6.53553e-12 0)
(580 -6.18712e-12 0)
(580 -5.6201e-12 0)
(580 -4.90171e-12 0)
(580 -4.05798e-12 0)
(580 -3.53641e-12 0)
(580 -3.02706e-12 0)
(580 -2.24727e-12 0)
(580 -6.57442e-12 0)
(580 3.94431e-12 0)
(580 -2.71819e-11 0)
(579.999 7.7249e-11 0)
(579.995 -2.00161e-10 0)
(579.982 2.91576e-11 0)
(579.929 1.42946e-09 0)
(579.73 -4.67298e-09 0)
(579.04 7.22479e-09 0)
(580 4.27952e-12 0)
(580 4.37683e-12 0)
(580 4.62301e-12 0)
(580 4.90477e-12 0)
(580 5.11533e-12 0)
(580 5.07841e-12 0)
(580 4.66126e-12 0)
(580 3.88081e-12 0)
(580 3.06948e-12 0)
(580 2.41895e-12 0)
(580 2.35004e-12 0)
(580 2.09658e-12 0)
(580 1.72157e-12 0)
(580 7.58428e-13 0)
(580 3.25627e-13 0)
(580 -4.62357e-13 0)
(580 -7.95189e-13 0)
(580 -1.27028e-12 0)
(580 -1.57359e-12 0)
(580 -1.88615e-12 0)
(580 -2.31577e-12 0)
(580 -2.58167e-12 0)
(580 -2.66863e-12 0)
(580 -2.37593e-12 0)
(580 -1.99611e-12 0)
(580 -1.5456e-12 0)
(580 -1.38318e-12 0)
(580 -1.31732e-12 0)
(580 -1.18115e-12 0)
(580 -1.11146e-12 0)
(580 -1.14945e-12 0)
(580 -1.05906e-12 0)
(580 -1.24558e-12 0)
(580 -1.52508e-12 0)
(580 -1.4521e-12 0)
(580 -1.21735e-12 0)
(580 -1.37395e-12 0)
(580 -2.01803e-12 0)
(580 -2.37865e-12 0)
(580 -2.46092e-12 0)
(580 -3.1706e-12 0)
(580 -3.53424e-12 0)
(580 -3.92667e-12 0)
(580 -3.91327e-12 0)
(580 -4.61736e-12 0)
(580 -5.38157e-12 0)
(580 -6.04081e-12 0)
(580 -6.29744e-12 0)
(580 -6.52578e-12 0)
(580 -6.78411e-12 0)
(580 -7.09316e-12 0)
(580 -7.25211e-12 0)
(580 -7.26555e-12 0)
(580 -7.16641e-12 0)
(580 -6.89736e-12 0)
(580 -6.38974e-12 0)
(580 -5.67846e-12 0)
(580 -4.88913e-12 0)
(580 -4.4258e-12 0)
(580 -3.8904e-12 0)
(580 -4.24626e-12 0)
(580 -4.26942e-12 0)
(580 2.91867e-12 0)
(580 -3.30587e-11 0)
(579.999 7.88922e-11 0)
(579.995 -8.48463e-11 0)
(579.982 -2.8216e-10 0)
(579.929 1.06266e-09 0)
(579.73 -4.75278e-09 0)
(579.04 8.78367e-09 0)
(580 5.19032e-12 0)
(580 5.1385e-12 0)
(580 4.93888e-12 0)
(580 4.61655e-12 0)
(580 3.8223e-12 0)
(580 3.9339e-12 0)
(580 4.51471e-12 0)
(580 4.64513e-12 0)
(580 4.51754e-12 0)
(580 4.19934e-12 0)
(580 3.73255e-12 0)
(580 2.9653e-12 0)
(580 2.40719e-12 0)
(580 1.99483e-12 0)
(580 1.32665e-12 0)
(580 6.09516e-13 0)
(580 2.28708e-14 0)
(580 -2.50138e-13 0)
(580 -8.89013e-13 0)
(580 -1.2708e-12 0)
(580 -1.39491e-12 0)
(580 -2.03469e-12 0)
(580 -2.30951e-12 0)
(580 -2.61221e-12 0)
(580 -2.60183e-12 0)
(580 -2.52375e-12 0)
(580 -2.39902e-12 0)
(580 -2.29613e-12 0)
(580 -2.21612e-12 0)
(580 -2.05436e-12 0)
(580 -1.99498e-12 0)
(580 -1.79205e-12 0)
(580 -2.41799e-12 0)
(580 -2.63256e-12 0)
(580 -2.98246e-12 0)
(580 -3.16878e-12 0)
(580 -2.97959e-12 0)
(580 -2.87305e-12 0)
(580 -3.47008e-12 0)
(580 -3.57615e-12 0)
(580 -3.94184e-12 0)
(580 -4.1525e-12 0)
(580 -4.36439e-12 0)
(580 -4.69166e-12 0)
(580 -4.94611e-12 0)
(580 -5.16147e-12 0)
(580 -5.52867e-12 0)
(580 -5.99131e-12 0)
(580 -6.17015e-12 0)
(580 -6.18216e-12 0)
(580 -6.1348e-12 0)
(580 -6.14168e-12 0)
(580 -6.29646e-12 0)
(580 -6.28555e-12 0)
(580 -5.98837e-12 0)
(580 -5.6325e-12 0)
(580 -5.40783e-12 0)
(580 -5.13804e-12 0)
(580 -4.98191e-12 0)
(580 -4.66531e-12 0)
(580 -5.84353e-12 0)
(580 -2.51444e-14 0)
(580 -3.29478e-12 0)
(580 -2.91098e-11 0)
(579.999 2.16672e-11 0)
(579.995 2.23254e-10 0)
(579.982 -7.23121e-10 0)
(579.929 4.43828e-10 0)
(579.73 3.55063e-09 0)
(579.04 -6.85271e-09 0)
(580 3.52872e-12 0)
(580 3.53662e-12 0)
(580 3.35008e-12 0)
(580 3.38608e-12 0)
(580 3.07683e-12 0)
(580 2.82558e-12 0)
(580 2.66394e-12 0)
(580 2.46748e-12 0)
(580 2.5161e-12 0)
(580 2.69816e-12 0)
(580 2.66153e-12 0)
(580 2.54874e-12 0)
(580 2.39585e-12 0)
(580 2.08349e-12 0)
(580 1.69862e-12 0)
(580 1.2573e-12 0)
(580 1.0622e-12 0)
(580 6.78463e-13 0)
(580 3.32252e-13 0)
(580 5.58747e-13 0)
(580 5.09287e-13 0)
(580 1.85114e-13 0)
(580 -4.94391e-13 0)
(580 -3.15132e-13 0)
(580 -6.2216e-13 0)
(580 -1.0829e-12 0)
(580 -1.47706e-12 0)
(580 -1.68773e-12 0)
(580 -1.83208e-12 0)
(580 -2.01683e-12 0)
(580 -2.42705e-12 0)
(580 -2.91451e-12 0)
(580 -3.14189e-12 0)
(580 -3.17762e-12 0)
(580 -3.32549e-12 0)
(580 -3.51412e-12 0)
(580 -3.78053e-12 0)
(580 -3.68219e-12 0)
(580 -4.57053e-12 0)
(580 -5.16247e-12 0)
(580 -5.56908e-12 0)
(580 -5.57326e-12 0)
(580 -5.66601e-12 0)
(580 -6.0378e-12 0)
(580 -6.22122e-12 0)
(580 -6.00705e-12 0)
(580 -5.86957e-12 0)
(580 -5.99208e-12 0)
(580 -6.26493e-12 0)
(580 -6.37008e-12 0)
(580 -6.38859e-12 0)
(580 -6.29253e-12 0)
(580 -5.96233e-12 0)
(580 -5.43227e-12 0)
(580 -5.06807e-12 0)
(580 -4.9419e-12 0)
(580 -4.73221e-12 0)
(580 -4.41914e-12 0)
(580 -4.02921e-12 0)
(580 -3.42148e-12 0)
(580 -5.5043e-12 0)
(580 4.06967e-12 0)
(580 -4.44175e-12 0)
(580 -4.06425e-11 0)
(579.999 6.99378e-13 0)
(579.995 4.97764e-10 0)
(579.982 -1.12821e-09 0)
(579.929 -8.28331e-10 0)
(579.73 7.00782e-09 0)
(579.04 -8.63919e-09 0)
(580 1.84622e-12 0)
(580 1.56575e-12 0)
(580 1.18647e-12 0)
(580 7.99721e-13 0)
(580 5.27869e-14 0)
(580 -2.55848e-13 0)
(580 -3.6833e-13 0)
(580 -3.07821e-13 0)
(580 -1.63863e-13 0)
(580 -3.99859e-13 0)
(580 -7.04477e-13 0)
(580 -5.16129e-13 0)
(580 -5.15006e-13 0)
(580 -6.55311e-13 0)
(580 -8.28173e-13 0)
(580 -6.33956e-13 0)
(580 -5.02783e-13 0)
(580 -1.81036e-13 0)
(580 -7.56898e-14 0)
(580 2.10717e-13 0)
(580 4.12104e-13 0)
(580 2.84623e-13 0)
(580 2.26547e-13 0)
(580 1.09338e-13 0)
(580 1.12459e-13 0)
(580 -1.59829e-13 0)
(580 -6.95335e-13 0)
(580 -1.3924e-12 0)
(580 -1.52408e-12 0)
(580 -1.94737e-12 0)
(580 -3.20271e-12 0)
(580 -4.33442e-12 0)
(580 -4.27079e-12 0)
(580 -4.16378e-12 0)
(580 -4.2119e-12 0)
(580 -4.72875e-12 0)
(580 -5.10291e-12 0)
(580 -5.52292e-12 0)
(580 -5.60883e-12 0)
(580 -5.70868e-12 0)
(580 -5.55851e-12 0)
(580 -5.81448e-12 0)
(580 -5.85702e-12 0)
(580 -5.8018e-12 0)
(580 -5.6953e-12 0)
(580 -5.77329e-12 0)
(580 -5.91552e-12 0)
(580 -6.44381e-12 0)
(580 -6.72965e-12 0)
(580 -7.03959e-12 0)
(580 -6.84073e-12 0)
(580 -6.28821e-12 0)
(580 -5.63057e-12 0)
(580 -5.41107e-12 0)
(580 -5.41836e-12 0)
(580 -5.44195e-12 0)
(580 -5.36818e-12 0)
(580 -4.82532e-12 0)
(580 -4.33353e-12 0)
(580 -3.68107e-12 0)
(580 -5.925e-12 0)
(580 4.50617e-12 0)
(580 1.25471e-12 0)
(580 -6.37848e-11 0)
(579.999 1.38253e-11 0)
(579.995 6.23533e-10 0)
(579.982 -1.52574e-09 0)
(579.929 -1.52743e-09 0)
(579.73 1.21256e-08 0)
(579.04 -9.69992e-09 0)
(580 3.18466e-13 0)
(580 2.48136e-13 0)
(580 1.8276e-13 0)
(580 1.96811e-13 0)
(580 2.28788e-13 0)
(580 4.69603e-14 0)
(580 -9.12798e-14 0)
(580 1.1821e-14 0)
(580 -1.33399e-13 0)
(580 -1.86741e-15 0)
(580 1.45411e-13 0)
(580 4.54515e-13 0)
(580 6.02588e-13 0)
(580 1.11528e-12 0)
(580 1.81664e-12 0)
(580 2.19709e-12 0)
(580 2.14111e-12 0)
(580 1.92698e-12 0)
(580 1.85743e-12 0)
(580 1.42515e-12 0)
(580 1.4682e-12 0)
(580 1.26389e-12 0)
(580 1.19512e-12 0)
(580 8.72735e-13 0)
(580 8.46265e-13 0)
(580 6.92502e-13 0)
(580 6.43495e-14 0)
(580 -9.58925e-13 0)
(580 -1.21022e-12 0)
(580 -1.44315e-12 0)
(580 -1.57743e-12 0)
(580 -1.67479e-12 0)
(580 -2.23116e-12 0)
(580 -2.57718e-12 0)
(580 -2.91693e-12 0)
(580 -3.32376e-12 0)
(580 -3.64365e-12 0)
(580 -4.17757e-12 0)
(580 -4.82047e-12 0)
(580 -5.3172e-12 0)
(580 -5.37401e-12 0)
(580 -5.1827e-12 0)
(580 -4.81971e-12 0)
(580 -4.67368e-12 0)
(580 -5.06354e-12 0)
(580 -5.34042e-12 0)
(580 -5.59518e-12 0)
(580 -5.85563e-12 0)
(580 -6.18429e-12 0)
(580 -6.18012e-12 0)
(580 -5.95364e-12 0)
(580 -5.61579e-12 0)
(580 -5.31464e-12 0)
(580 -5.0423e-12 0)
(580 -4.82753e-12 0)
(580 -4.67417e-12 0)
(580 -4.58771e-12 0)
(580 -4.26345e-12 0)
(580 -3.97935e-12 0)
(580 -3.82959e-12 0)
(580 -6.1164e-12 0)
(580 4.48443e-12 0)
(580 6.6212e-12 0)
(580 -8.50969e-11 0)
(579.999 8.7605e-12 0)
(579.995 9.11941e-10 0)
(579.982 -2.23779e-09 0)
(579.929 -2.09478e-09 0)
(579.73 1.78992e-08 0)
(579.04 -2.57326e-08 0)
(580 1.66588e-12 0)
(580 1.45001e-12 0)
(580 1.27594e-12 0)
(580 1.19005e-12 0)
(580 1.21153e-12 0)
(580 1.27998e-12 0)
(580 1.28854e-12 0)
(580 1.29491e-12 0)
(580 1.13075e-12 0)
(580 1.37309e-12 0)
(580 1.59563e-12 0)
(580 1.65386e-12 0)
(580 1.78978e-12 0)
(580 2.05113e-12 0)
(580 2.38448e-12 0)
(580 2.83291e-12 0)
(580 3.28985e-12 0)
(580 3.13877e-12 0)
(580 2.86668e-12 0)
(580 2.49185e-12 0)
(580 2.20137e-12 0)
(580 1.96715e-12 0)
(580 1.4318e-12 0)
(580 8.42733e-13 0)
(580 6.60478e-13 0)
(580 3.15957e-13 0)
(580 4.52265e-13 0)
(580 4.25652e-13 0)
(580 1.47309e-13 0)
(580 -5.54033e-14 0)
(580 4.04404e-14 0)
(580 2.28831e-13 0)
(580 2.8891e-13 0)
(580 2.65369e-13 0)
(580 9.82515e-14 0)
(580 1.14699e-13 0)
(580 2.09591e-13 0)
(580 1.41793e-13 0)
(580 2.27723e-13 0)
(580 4.96001e-13 0)
(580 5.81495e-13 0)
(580 6.49882e-13 0)
(580 6.18044e-13 0)
(580 7.07537e-14 0)
(580 -1.64525e-13 0)
(580 -6.03813e-13 0)
(580 -9.48669e-13 0)
(580 -1.43156e-12 0)
(580 -2.33885e-12 0)
(580 -2.89207e-12 0)
(580 -3.09357e-12 0)
(580 -3.2766e-12 0)
(580 -3.44606e-12 0)
(580 -3.43374e-12 0)
(580 -3.20894e-12 0)
(580 -2.91413e-12 0)
(580 -2.89797e-12 0)
(580 -2.79598e-12 0)
(580 -3.00364e-12 0)
(580 -2.8829e-12 0)
(580 -7.19753e-12 0)
(580 9.96952e-12 0)
(580 3.12978e-12 0)
(580 -8.89255e-11 0)
(579.999 -6.37851e-12 0)
(579.995 1.0655e-09 0)
(579.982 -2.45976e-09 0)
(579.929 -2.85753e-09 0)
(579.73 2.30597e-08 0)
(579.04 -3.32733e-08 0)
(580 1.34949e-12 0)
(580 1.2764e-12 0)
(580 1.45023e-12 0)
(580 1.54842e-12 0)
(580 1.81017e-12 0)
(580 1.94497e-12 0)
(580 2.30989e-12 0)
(580 2.33244e-12 0)
(580 2.33659e-12 0)
(580 2.24673e-12 0)
(580 2.25852e-12 0)
(580 2.49697e-12 0)
(580 2.64681e-12 0)
(580 2.49899e-12 0)
(580 2.13207e-12 0)
(580 1.92759e-12 0)
(580 2.04418e-12 0)
(580 1.98603e-12 0)
(580 2.02922e-12 0)
(580 2.18546e-12 0)
(580 2.15885e-12 0)
(580 1.97717e-12 0)
(580 1.81556e-12 0)
(580 1.63637e-12 0)
(580 1.38605e-12 0)
(580 1.15443e-12 0)
(580 9.95622e-13 0)
(580 9.57792e-13 0)
(580 8.95054e-13 0)
(580 7.02697e-13 0)
(580 5.51912e-13 0)
(580 3.9923e-13 0)
(580 4.71e-13 0)
(580 5.59542e-13 0)
(580 6.11033e-13 0)
(580 5.96619e-13 0)
(580 5.87054e-13 0)
(580 8.44117e-13 0)
(580 8.85344e-13 0)
(580 9.37474e-13 0)
(580 9.73218e-13 0)
(580 9.61062e-13 0)
(580 1.11503e-12 0)
(580 1.38934e-12 0)
(580 1.1179e-12 0)
(580 8.33783e-13 0)
(580 9.53338e-13 0)
(580 1.0619e-12 0)
(580 7.28585e-13 0)
(580 1.36241e-13 0)
(580 -1.27158e-13 0)
(580 -3.54898e-13 0)
(580 -6.93987e-13 0)
(580 -1.14693e-12 0)
(580 -1.60936e-12 0)
(580 -1.86943e-12 0)
(580 -1.99609e-12 0)
(580 -1.83817e-12 0)
(580 -1.70622e-12 0)
(580 -1.47212e-12 0)
(580 -6.85407e-12 0)
(580 1.33853e-11 0)
(580 1.12933e-12 0)
(580 -9.47654e-11 0)
(579.999 1.76602e-12 0)
(579.995 1.09962e-09 0)
(579.982 -2.32788e-09 0)
(579.929 -4.074e-09 0)
(579.73 2.53096e-08 0)
(579.04 -3.48194e-08 0)
(580 2.27161e-12 0)
(580 2.63084e-12 0)
(580 2.70713e-12 0)
(580 3.10052e-12 0)
(580 3.39255e-12 0)
(580 3.01289e-12 0)
(580 2.64762e-12 0)
(580 2.58461e-12 0)
(580 2.72092e-12 0)
(580 2.9482e-12 0)
(580 2.83206e-12 0)
(580 2.90358e-12 0)
(580 2.61633e-12 0)
(580 1.79116e-12 0)
(580 1.36138e-12 0)
(580 6.81128e-13 0)
(580 1.91543e-13 0)
(580 -1.79524e-13 0)
(580 -1.15149e-13 0)
(580 -2.28391e-13 0)
(580 -2.18373e-13 0)
(580 -3.84031e-13 0)
(580 -4.40308e-13 0)
(580 -4.07703e-13 0)
(580 -5.24954e-13 0)
(580 -2.95428e-13 0)
(580 -2.53469e-13 0)
(580 -1.04375e-13 0)
(580 -9.10243e-14 0)
(580 6.59021e-14 0)
(580 2.17965e-13 0)
(580 3.6595e-13 0)
(580 5.88453e-13 0)
(580 6.85708e-13 0)
(580 7.82425e-13 0)
(580 9.5701e-13 0)
(580 1.04611e-12 0)
(580 1.22394e-12 0)
(580 1.30906e-12 0)
(580 1.2128e-12 0)
(580 1.16966e-12 0)
(580 1.09346e-12 0)
(580 8.69324e-13 0)
(580 7.93113e-13 0)
(580 6.32002e-13 0)
(580 8.52329e-13 0)
(580 1.06873e-12 0)
(580 1.15424e-12 0)
(580 6.62261e-13 0)
(580 3.86492e-13 0)
(580 3.20618e-13 0)
(580 3.88436e-13 0)
(580 6.33434e-13 0)
(580 7.22235e-13 0)
(580 7.27392e-13 0)
(580 6.63634e-13 0)
(580 5.94133e-13 0)
(580 4.96009e-13 0)
(580 5.16506e-13 0)
(580 1.05584e-13 0)
(580 -4.64568e-12 0)
(580 1.40094e-11 0)
(580 3.71084e-12 0)
(580 -9.6887e-11 0)
(579.999 6.42631e-12 0)
(579.995 1.12037e-09 0)
(579.982 -2.51641e-09 0)
(579.929 -3.73756e-09 0)
(579.73 2.54739e-08 0)
(579.04 -3.16177e-08 0)
(580 2.92121e-12 0)
(580 3.1115e-12 0)
(580 3.0833e-12 0)
(580 2.67295e-12 0)
(580 2.65892e-12 0)
(580 2.93879e-12 0)
(580 2.94755e-12 0)
(580 2.74728e-12 0)
(580 2.32884e-12 0)
(580 2.24381e-12 0)
(580 1.91541e-12 0)
(580 1.56925e-12 0)
(580 1.5705e-12 0)
(580 1.19581e-12 0)
(580 6.99391e-13 0)
(580 3.61107e-13 0)
(580 2.44778e-13 0)
(580 -9.58801e-14 0)
(580 -4.16644e-13 0)
(580 -7.67263e-13 0)
(580 -7.95077e-13 0)
(580 -6.98437e-13 0)
(580 -6.44536e-13 0)
(580 -6.41086e-13 0)
(580 -3.24084e-13 0)
(580 -8.07712e-14 0)
(580 1.99149e-13 0)
(580 4.56291e-13 0)
(580 7.48163e-13 0)
(580 1.27891e-12 0)
(580 1.3511e-12 0)
(580 1.4559e-12 0)
(580 1.42943e-12 0)
(580 1.43341e-12 0)
(580 1.41999e-12 0)
(580 1.44176e-12 0)
(580 1.85452e-12 0)
(580 1.6957e-12 0)
(580 1.95126e-12 0)
(580 2.24083e-12 0)
(580 2.2746e-12 0)
(580 2.00056e-12 0)
(580 1.52391e-12 0)
(580 1.13818e-12 0)
(580 8.65074e-13 0)
(580 7.7249e-13 0)
(580 7.7313e-13 0)
(580 7.84033e-13 0)
(580 3.85534e-13 0)
(580 2.48786e-13 0)
(580 2.81316e-13 0)
(580 4.45021e-13 0)
(580 6.62187e-13 0)
(580 1.01044e-12 0)
(580 1.25346e-12 0)
(580 1.29203e-12 0)
(580 1.07357e-12 0)
(580 8.55646e-13 0)
(580 8.75159e-13 0)
(580 6.56738e-13 0)
(580 -4.74327e-12 0)
(580 1.69944e-11 0)
(580 -3.17235e-12 0)
(580 -7.27445e-11 0)
(579.999 -5.26783e-11 0)
(579.995 1.24365e-09 0)
(579.982 -2.50107e-09 0)
(579.929 -4.62084e-09 0)
(579.73 2.77538e-08 0)
(579.04 -3.8703e-08 0)
(580 3.50928e-12 0)
(580 3.31791e-12 0)
(580 3.16911e-12 0)
(580 2.76628e-12 0)
(580 2.62173e-12 0)
(580 2.31093e-12 0)
(580 2.12589e-12 0)
(580 1.92294e-12 0)
(580 1.82701e-12 0)
(580 1.36318e-12 0)
(580 1.10776e-12 0)
(580 6.52574e-13 0)
(580 8.30727e-14 0)
(580 -1.01746e-13 0)
(580 -3.95201e-14 0)
(580 -1.49458e-13 0)
(580 -1.41267e-13 0)
(580 1.90935e-13 0)
(580 5.87207e-13 0)
(580 8.43151e-13 0)
(580 9.90483e-13 0)
(580 1.22082e-12 0)
(580 1.28461e-12 0)
(580 1.31086e-12 0)
(580 1.63235e-12 0)
(580 1.81872e-12 0)
(580 1.93168e-12 0)
(580 1.94793e-12 0)
(580 2.19468e-12 0)
(580 2.13103e-12 0)
(580 1.95969e-12 0)
(580 1.79398e-12 0)
(580 1.88183e-12 0)
(580 1.88653e-12 0)
(580 1.7998e-12 0)
(580 1.77513e-12 0)
(580 1.52402e-12 0)
(580 1.39584e-12 0)
(580 1.06473e-12 0)
(580 7.17054e-13 0)
(580 4.10326e-13 0)
(580 1.86653e-13 0)
(580 2.40429e-13 0)
(580 3.161e-13 0)
(580 4.1305e-13 0)
(580 3.74379e-13 0)
(580 3.55909e-13 0)
(580 5.45284e-13 0)
(580 8.16123e-13 0)
(580 6.0276e-13 0)
(580 4.89127e-13 0)
(580 4.15156e-13 0)
(580 3.96304e-13 0)
(580 5.94539e-13 0)
(580 9.72047e-13 0)
(580 1.17901e-12 0)
(580 1.09178e-12 0)
(580 1.03508e-12 0)
(580 1.06447e-12 0)
(580 1.22748e-12 0)
(580 -3.57413e-12 0)
(580 1.59711e-11 0)
(580 1.70637e-13 0)
(580 -7.3248e-11 0)
(579.999 -3.24767e-11 0)
(579.995 1.0406e-09 0)
(579.982 -1.99196e-09 0)
(579.929 -4.77328e-09 0)
(579.73 2.58122e-08 0)
(579.04 -3.38726e-08 0)
(580 2.45279e-12 0)
(580 2.06138e-12 0)
(580 1.5452e-12 0)
(580 1.27271e-12 0)
(580 7.48052e-13 0)
(580 5.26805e-13 0)
(580 2.64354e-13 0)
(580 3.16843e-13 0)
(580 3.2383e-13 0)
(580 2.21103e-13 0)
(580 9.46522e-14 0)
(580 2.02463e-13 0)
(580 5.4483e-13 0)
(580 1.01874e-12 0)
(580 1.48277e-12 0)
(580 1.50746e-12 0)
(580 1.41337e-12 0)
(580 1.31622e-12 0)
(580 1.44858e-12 0)
(580 1.31239e-12 0)
(580 1.53357e-12 0)
(580 1.42558e-12 0)
(580 1.83301e-12 0)
(580 1.92484e-12 0)
(580 2.16822e-12 0)
(580 2.15555e-12 0)
(580 1.70832e-12 0)
(580 1.46357e-12 0)
(580 9.47479e-13 0)
(580 9.0722e-13 0)
(580 9.12128e-13 0)
(580 8.23644e-13 0)
(580 8.10841e-13 0)
(580 6.24792e-13 0)
(580 6.8557e-13 0)
(580 7.87401e-13 0)
(580 8.51719e-13 0)
(580 8.18534e-13 0)
(580 4.79639e-13 0)
(580 3.84543e-13 0)
(580 8.10797e-13 0)
(580 9.74763e-13 0)
(580 1.25298e-12 0)
(580 1.44974e-12 0)
(580 1.80651e-12 0)
(580 1.82435e-12 0)
(580 1.74831e-12 0)
(580 1.71835e-12 0)
(580 1.7157e-12 0)
(580 1.68088e-12 0)
(580 1.59472e-12 0)
(580 1.51643e-12 0)
(580 1.55606e-12 0)
(580 1.5924e-12 0)
(580 1.61669e-12 0)
(580 1.74877e-12 0)
(580 1.9263e-12 0)
(580 2.14432e-12 0)
(580 2.53649e-12 0)
(580 2.07769e-12 0)
(580 -6.77138e-13 0)
(580 1.17911e-11 0)
(580 4.08393e-12 0)
(580 -5.17371e-11 0)
(579.999 -6.70856e-11 0)
(579.995 1.00946e-09 0)
(579.982 -1.78587e-09 0)
(579.929 -4.33625e-09 0)
(579.73 2.38245e-08 0)
(579.04 -3.17641e-08 0)
(580 5.40538e-13 0)
(580 3.37531e-13 0)
(580 2.84204e-13 0)
(580 2.32744e-13 0)
(580 1.51454e-13 0)
(580 6.58375e-14 0)
(580 1.29792e-13 0)
(580 1.86317e-13 0)
(580 5.76954e-14 0)
(580 1.13255e-13 0)
(580 2.83161e-13 0)
(580 3.31859e-13 0)
(580 5.20319e-13 0)
(580 6.58589e-13 0)
(580 7.53113e-13 0)
(580 8.63736e-13 0)
(580 1.06618e-12 0)
(580 1.14515e-12 0)
(580 1.0787e-12 0)
(580 1.10568e-12 0)
(580 1.03824e-12 0)
(580 9.82969e-13 0)
(580 8.58886e-13 0)
(580 7.75726e-13 0)
(580 5.01953e-13 0)
(580 2.89847e-13 0)
(580 5.34643e-13 0)
(580 2.53335e-13 0)
(580 2.88182e-13 0)
(580 3.27745e-13 0)
(580 4.10953e-13 0)
(580 5.0159e-13 0)
(580 5.73631e-13 0)
(580 7.0624e-13 0)
(580 1.01974e-12 0)
(580 1.19496e-12 0)
(580 1.15426e-12 0)
(580 1.06059e-12 0)
(580 1.09562e-12 0)
(580 1.27411e-12 0)
(580 1.49715e-12 0)
(580 1.89842e-12 0)
(580 2.27277e-12 0)
(580 2.43028e-12 0)
(580 3.22214e-12 0)
(580 3.17812e-12 0)
(580 2.92376e-12 0)
(580 2.41126e-12 0)
(580 2.25923e-12 0)
(580 2.34447e-12 0)
(580 2.48643e-12 0)
(580 2.54273e-12 0)
(580 2.58221e-12 0)
(580 2.68232e-12 0)
(580 2.84294e-12 0)
(580 3.01748e-12 0)
(580 3.13812e-12 0)
(580 3.18983e-12 0)
(580 3.42717e-12 0)
(580 2.90952e-12 0)
(580 1.29815e-12 0)
(580 9.35822e-12 0)
(580 1.91381e-12 0)
(580 -1.97786e-11 0)
(579.999 -9.83132e-11 0)
(579.995 7.37347e-10 0)
(579.982 -9.06655e-10 0)
(579.929 -4.30927e-09 0)
(579.73 1.87819e-08 0)
(579.04 -2.39614e-08 0)
(580 -5.636e-13 0)
(580 -3.10822e-13 0)
(580 -2.75785e-13 0)
(580 -1.23108e-13 0)
(580 -4.14493e-14 0)
(580 1.23143e-13 0)
(580 3.43459e-13 0)
(580 2.7324e-13 0)
(580 3.45028e-13 0)
(580 5.05017e-13 0)
(580 7.13981e-13 0)
(580 7.68494e-13 0)
(580 7.57987e-13 0)
(580 7.08917e-13 0)
(580 4.81158e-13 0)
(580 4.27964e-13 0)
(580 5.98827e-13 0)
(580 6.9216e-13 0)
(580 6.4424e-13 0)
(580 6.24038e-13 0)
(580 5.91819e-13 0)
(580 4.98182e-13 0)
(580 3.19941e-13 0)
(580 3.27511e-13 0)
(580 -1.3911e-13 0)
(580 -1.81064e-13 0)
(580 -1.11447e-13 0)
(580 2.05062e-13 0)
(580 4.41089e-13 0)
(580 7.01289e-13 0)
(580 9.63256e-13 0)
(580 1.17798e-12 0)
(580 1.24372e-12 0)
(580 1.28532e-12 0)