/*--------------------------------*- C++ -*----------------------------------*\
| =========                 |                                                 |
| \\      /  F ield         | OpenFOAM: The Open Source CFD Toolbox           |
|  \\    /   O peration     | Version:  2306                                  |
|   \\  /    A nd           | Website:  www.openfoam.com                      |
|    \\/     M anipulation  |                                                 |
\*---------------------------------------------------------------------------*/
FoamFile
{
    version     2.0;
    format      ascii;
    arch        "LSB;label=32;scalar=64";
    class       volVectorField;
    location    "8e-05";
    object      U;
}
// * * * * * * * * * * * * * * * * * * * * * * * * * * * * * * * * * * * * * //

dimensions      [0 1 -1 0 0 0 0];

internalField   nonuniform List<vector> 
8941
(
(580 -4.52381e-14 0)
(580 1.48999e-13 0)
(580 2.95488e-13 0)
(580 2.39113e-13 0)
(580 1.43714e-13 0)
(580 -1.10662e-13 0)
(580 -2.40519e-13 0)
(580 -1.2972e-13 0)
(580 9.39237e-14 0)
(580 5.2248e-14 0)
(580 -1.71211e-13 0)
(580 -8.42723e-14 0)
(580 1.82169e-13 0)
(580 6.59088e-13 0)
(580 6.46678e-13 0)
(580 7.87129e-13 0)
(580 7.14263e-13 0)
(580 5.79497e-13 0)
(580 6.49073e-13 0)
(580 6.44489e-13 0)
(580 5.20297e-13 0)
(580 2.13044e-13 0)
(580 -5.03594e-13 0)
(580 -5.81898e-13 0)
(580 -6.17158e-13 0)
(580 -3.19661e-13 0)
(580 -5.73797e-13 0)
(580 -5.36738e-13 0)
(580 -4.45957e-13 0)
(580 -6.98089e-13 0)
(580 -3.80849e-13 0)
(580 -3.90042e-13 0)
(580 -1.01232e-13 0)
(580 3.2016e-13 0)
(580 1.13002e-13 0)
(580 -3.45573e-13 0)
(580 -5.45089e-13 0)
(580 -4.65276e-13 0)
(580 -4.45436e-13 0)
(580 -1.86928e-13 0)
(580 5.13016e-14 0)
(580 3.55659e-13 0)
(580 2.62885e-13 0)
(580 1.36768e-13 0)
(580 1.59848e-13 0)
(580 1.55088e-13 0)
(580 2.43989e-13 0)
(580 3.34845e-13 0)
(580 2.97838e-13 0)
(580 7.81587e-13 0)
(580 7.22439e-13 0)
(580 2.46321e-13 0)
(580 3.08215e-13 0)
(580 5.73846e-13 0)
(580 5.47721e-13 0)
(580 5.76189e-13 0)
(580 5.24236e-13 0)
(580 2.77103e-13 0)
(580 2.20119e-13 0)
(580 2.88633e-13 0)
(580 3.02857e-13 0)
(580 3.31772e-13 0)
(580 4.59811e-13 0)
(580 3.47779e-13 0)
(580 6.75692e-13 0)
(580 4.42277e-13 0)
(580 2.00706e-13 0)
(580 -1.27096e-13 0)
(580 -2.18968e-13 0)
(580 -5.88129e-14 0)
(580 1.01128e-13 0)
(580 -1.46456e-13 0)
(580 -1.99947e-13 0)
(580 -2.77329e-13 0)
(580 -2.92774e-13 0)
(580 -5.57964e-13 0)
(580 -3.14793e-13 0)
(580 -1.95041e-13 0)
(580 -1.70696e-13 0)
(580 -3.08959e-13 0)
(580 -4.63006e-14 0)
(580 -1.19206e-14 0)
(580 -6.88691e-14 0)
(580 -1.02139e-13 0)
(580 -1.40921e-13 0)
(580 -2.91314e-13 0)
(580 -8.36918e-14 0)
(580 4.34874e-13 0)
(580 5.13943e-13 0)
(580 3.50811e-13 0)
(580 4.47686e-14 0)
(580 1.08013e-13 0)
(580 4.84781e-13 0)
(580 7.46677e-13 0)
(580 1.09558e-12 0)
(580 1.06758e-12 0)
(580 7.145e-13 0)
(580 4.14756e-13 0)
(580 1.37389e-13 0)
(580 -2.39332e-14 0)
(580 1.65398e-13 0)
(580 1.80473e-13 0)
(580 -3.77241e-13 0)
(580 -3.84783e-13 0)
(580 -3.03722e-13 0)
(580 -4.0327e-15 0)
(580 -5.37192e-13 0)
(580 -7.41709e-13 0)
(580 -7.87528e-13 0)
(580 -1.1191e-12 0)
(580 -6.42381e-13 0)
(580 -9.56503e-13 0)
(580 -1.28479e-13 0)
(580 3.68412e-13 0)
(580 2.28265e-13 0)
(580 -5.3382e-13 0)
(580 -9.80267e-13 0)
(580 -5.72662e-13 0)
(580 -1.33617e-13 0)
(580 4.36494e-13 0)
(580 7.75812e-13 0)
(580 9.59089e-13 0)
(580 1.17816e-12 0)
(580 9.40169e-13 0)
(580 1.06663e-12 0)
(580 8.87887e-13 0)
(580 7.61094e-13 0)
(580 6.42926e-13 0)
(580 4.34472e-13 0)
(580 5.37105e-13 0)
(580 4.52072e-13 0)
(580 1.5466e-13 0)
(580 3.88799e-13 0)
(580 7.41013e-13 0)
(580 5.80661e-13 0)
(580 4.95641e-13 0)
(580 5.14088e-13 0)
(580 6.5983e-14 0)
(580 2.2517e-14 0)
(580 -2.7918e-13 0)
(580 -3.80161e-13 0)
(580 -3.21931e-14 0)
(580 3.99918e-13 0)
(580 5.42603e-13 0)
(580 5.17068e-13 0)
(580 1.99159e-13 0)
(580 9.43768e-14 0)
(580 -6.11949e-14 0)
(580 -8.31736e-13 0)
(580 -6.03165e-13 0)
(580 -4.9691e-13 0)
(580 -4.5209e-13 0)
(580 9.23538e-14 0)
(580 1.39934e-13 0)
(580 -9.09902e-14 0)
(580 -5.12806e-13 0)
(580 -4.93911e-13 0)
(580 -2.72276e-13 0)
(580 -2.27766e-13 0)
(580 -7.62589e-13 0)
(580 1.91856e-14 0)
(580 -5.25403e-13 0)
(580 -8.50233e-13 0)
(580 -6.11564e-13 0)
(580 -5.82752e-13 0)
(580 -2.43419e-13 0)
(580 2.45209e-13 0)
(580 2.22864e-13 0)
(580 2.62302e-13 0)
(580 4.8654e-13 0)
(580 6.495e-13 0)
(580 6.29654e-13 0)
(580 5.75453e-13 0)
(580 5.51538e-13 0)
(580 6.26479e-13 0)
(580 4.47839e-13 0)
(580 1.39665e-13 0)
(580 4.75469e-13 0)
(580 4.5106e-13 0)
(580 4.8615e-13 0)
(580 4.40229e-13 0)
(580 -6.16397e-14 0)
(580 -2.36722e-13 0)
(580 -1.92983e-13 0)
(580 -3.45585e-13 0)
(580 -4.73685e-13 0)
(580 -4.82714e-13 0)
(580 -1.74913e-13 0)
(580 5.28518e-15 0)
(580 3.1794e-13 0)
(580 -1.95257e-13 0)
(580 -1.93813e-13 0)
(580 -3.53127e-13 0)
(580 -2.59863e-13 0)
(580 -3.03431e-13 0)
(580 -5.31155e-13 0)
(580 -4.92134e-13 0)
(580 -4.81713e-14 0)
(580 4.24751e-13 0)
(580 9.65081e-13 0)
(580 1.06537e-12 0)
(580 8.67497e-13 0)
(580 7.90819e-13 0)
(580 1.08983e-12 0)
(580 1.13678e-12 0)
(580 1.12892e-12 0)
(580 1.23037e-12 0)
(580 8.76261e-13 0)
(580 8.22794e-13 0)
(580 5.78888e-13 0)
(580 6.00673e-13 0)
(580 6.51768e-13 0)
(580 6.91972e-13 0)
(580 5.4295e-13 0)
(580 3.90118e-13 0)
(580 4.09275e-13 0)
(580 2.302e-13 0)
(580 3.06467e-13 0)
(580 1.79807e-13 0)
(580 1.70365e-13 0)
(580 2.0498e-13 0)
(580 5.87652e-13 0)
(580 4.89668e-13 0)
(580 6.6326e-13 0)
(580 4.13511e-13 0)
(580 -5.77762e-14 0)
(580 -1.17031e-13 0)
(580 -2.09442e-13 0)
(580 -4.04429e-13 0)
(580 -1.41696e-13 0)
(580 -1.31072e-13 0)
(580 -2.98317e-13 0)
(580 -1.33516e-13 0)
(580 1.70627e-13 0)
(580 2.14713e-13 0)
(580 6.12314e-14 0)
(580 -2.56679e-13 0)
(580 -6.48469e-13 0)
(580 -1.03061e-12 0)
(580 -1.37038e-12 0)
(580 -6.58734e-14 0)
(580 -8.35021e-14 0)
(580 -3.12274e-13 0)
(580 -2.45273e-13 0)
(580 -3.24428e-13 0)
(580 -2.7717e-13 0)
(580 -1.52697e-13 0)
(580 -3.21195e-13 0)
(580 -1.69767e-13 0)
(580 1.66692e-13 0)
(580 3.06391e-13 0)
(580 4.0597e-13 0)
(580 3.16274e-13 0)
(580 5.1582e-13 0)
(580 3.91849e-13 0)
(580 2.34202e-13 0)
(580 -1.80417e-13 0)
(580 -3.43391e-13 0)
(580 -2.09424e-14 0)
(580 2.27971e-13 0)
(580 1.60688e-13 0)
(580 -3.933e-13 0)
(580 -4.0341e-13 0)
(580 -2.86153e-13 0)
(580 -3.94208e-13 0)
(580 -5.29179e-13 0)
(580 -6.24516e-13 0)
(580 -4.2157e-13 0)
(580 -4.79732e-13 0)
(580 -4.68237e-13 0)
(580 -5.57134e-13 0)
(580 -4.67387e-13 0)
(580 -4.54243e-13 0)
(580 7.29232e-14 0)
(580 3.73271e-13 0)
(580 1.65409e-13 0)
(580 5.30451e-13 0)
(580 6.23903e-13 0)
(580 6.04839e-13 0)
(580 7.00644e-13 0)
(580 1.1455e-12 0)
(580 1.67645e-12 0)
(580 1.95217e-12 0)
(580 2.12676e-12 0)
(580 1.96338e-12 0)
(580 1.51473e-12 0)
(580 1.30004e-12 0)
(580 1.16174e-12 0)
(580 1.30637e-12 0)
(580 1.50538e-12 0)
(580 1.58149e-12 0)
(580 1.31033e-12 0)
(580 1.25154e-12 0)
(580 1.16984e-12 0)
(580 1.32946e-12 0)
(580 1.20813e-12 0)
(580 1.20745e-12 0)
(580 1.3449e-12 0)
(580 1.33994e-12 0)
(580 1.20314e-12 0)
(580 1.01258e-12 0)
(580 7.09691e-13 0)
(580 3.42316e-14 0)
(580 -7.96551e-13 0)
(580 -8.55552e-13 0)
(580 -1.09434e-12 0)
(580 -9.12029e-13 0)
(580 -5.94797e-13 0)
(580 8.95878e-14 0)
(580 4.40834e-13 0)
(580 4.5846e-13 0)
(580 2.16483e-13 0)
(580 3.56471e-13 0)
(580 5.5888e-13 0)
(580 4.29141e-13 0)
(580 4.06172e-13 0)
(580 3.14483e-13 0)
(580 -1.60787e-13 0)
(580 -5.77674e-13 0)
(580 -9.16299e-13 0)
(580 2.03751e-14 0)
(580 1.46012e-13 0)
(580 1.69421e-13 0)
(580 -2.48186e-13 0)
(580 -2.3415e-13 0)
(580 -4.4361e-13 0)
(580 -4.9848e-13 0)
(580 -4.76145e-13 0)
(580 -1.4201e-13 0)
(580 -5.76301e-14 0)
(580 -1.0552e-13 0)
(580 -1.55403e-13 0)
(580 3.7797e-14 0)
(580 5.95695e-14 0)
(580 -7.57499e-14 0)
(580 -5.10505e-14 0)
(580 -3.29363e-13 0)
(580 -9.14501e-13 0)
(580 -9.89291e-13 0)
(580 -1.01684e-12 0)
(580 -6.57368e-13 0)
(580 -7.50701e-13 0)
(580 -5.24063e-13 0)
(580 -6.11296e-13 0)
(580 -7.91555e-13 0)
(580 -8.2148e-13 0)
(580 -6.41617e-13 0)
(580 -4.25925e-13 0)
(580 -5.81253e-13 0)
(580 -6.60619e-13 0)
(580 -4.45561e-13 0)
(580 -2.67579e-13 0)
(580 -1.63328e-13 0)
(580 1.43814e-13 0)
(580 8.00324e-13 0)
(580 8.01416e-13 0)
(580 9.27174e-13 0)
(580 1.05097e-12 0)
(580 1.28948e-12 0)
(580 1.29144e-12 0)
(580 1.43001e-12 0)
(580 1.81342e-12 0)
(580 2.36512e-12 0)
(580 2.56735e-12 0)
(580 2.43587e-12 0)
(580 1.72773e-12 0)
(580 1.19703e-12 0)
(580 1.37095e-12 0)
(580 1.63127e-12 0)
(580 1.82031e-12 0)
(580 1.81848e-12 0)
(580 1.85093e-12 0)
(580 2.14774e-12 0)
(580 1.8393e-12 0)
(580 1.82562e-12 0)
(580 1.72431e-12 0)
(580 1.79781e-12 0)
(580 1.84885e-12 0)
(580 1.83738e-12 0)
(580 1.55409e-12 0)
(580 1.23557e-12 0)
(580 1.08588e-12 0)
(580 6.01404e-13 0)
(580 1.21591e-14 0)
(580 -6.70518e-13 0)
(580 -5.3748e-13 0)
(580 -4.03243e-13 0)
(580 -1.65007e-13 0)
(580 1.43731e-13 0)
(580 -1.14742e-13 0)
(580 -1.50166e-13 0)
(580 1.10573e-13 0)
(580 3.1078e-13 0)
(580 3.08311e-13 0)
(580 4.0553e-13 0)
(580 3.17048e-13 0)
(580 3.36783e-13 0)
(580 3.23686e-13 0)
(580 2.23546e-13 0)
(580 -2.28964e-14 0)
(580 -4.54362e-14 0)
(580 4.89301e-14 0)
(580 9.26412e-14 0)
(580 -2.29597e-13 0)
(580 -3.09269e-13 0)
(580 -6.12649e-13 0)
(580 -6.86942e-13 0)
(580 -4.64522e-13 0)
(580 -3.404e-13 0)
(580 -7.86675e-14 0)
(580 1.58295e-13 0)
(580 -1.95723e-14 0)
(580 -2.95475e-13 0)
(580 -6.88711e-13 0)
(580 -1.13968e-12 0)
(580 -1.13952e-12 0)
(580 -8.21061e-13 0)
(580 -6.90335e-13 0)
(580 -8.51987e-13 0)
(580 -8.64794e-13 0)
(580 -8.60816e-13 0)
(580 -6.43756e-13 0)
(580 -6.88401e-13 0)
(580 -9.26838e-13 0)
(580 -9.50066e-13 0)
(580 -1.07514e-12 0)
(580 -1.01813e-12 0)
(580 -8.32713e-13 0)
(580 -6.27043e-13 0)
(580 -7.89319e-13 0)
(580 -8.42042e-13 0)
(580 -3.90999e-13 0)
(580 -2.90431e-13 0)
(580 -7.62834e-14 0)
(580 5.70126e-13 0)
(580 1.11326e-12 0)
(580 1.23798e-12 0)
(580 1.18727e-12 0)
(580 1.30283e-12 0)
(580 1.6363e-12 0)
(580 1.78355e-12 0)
(580 2.09994e-12 0)
(580 2.14053e-12 0)
(580 2.09057e-12 0)
(580 1.97583e-12 0)
(580 1.53764e-12 0)
(580 1.29171e-12 0)
(580 1.39842e-12 0)
(580 1.85941e-12 0)
(580 1.95706e-12 0)
(580 2.05036e-12 0)
(580 2.42031e-12 0)
(580 2.10846e-12 0)
(580 1.98076e-12 0)
(580 1.54606e-12 0)
(580 1.60884e-12 0)
(580 1.6166e-12 0)
(580 1.5277e-12 0)
(580 1.43655e-12 0)
(580 1.31242e-12 0)
(580 1.17375e-12 0)
(580 1.03968e-12 0)
(580 1.04959e-12 0)
(580 9.94693e-13 0)
(580 6.20175e-13 0)
(580 6.36223e-13 0)
(580 3.62615e-13 0)
(580 1.32007e-13 0)
(580 -3.77046e-13 0)
(580 -1.10153e-12 0)
(580 -8.53925e-13 0)
(580 -5.99568e-13 0)
(580 -4.95524e-13 0)
(580 -3.27784e-13 0)
(580 2.84094e-13 0)
(580 8.18898e-13 0)
(580 6.61101e-13 0)
(580 8.96673e-13 0)
(580 6.91386e-13 0)
(580 6.31656e-13 0)
(580 2.31079e-15 0)
(580 -1.05222e-14 0)
(580 -1.53085e-13 0)
(580 -1.87245e-13 0)
(580 -2.71406e-13 0)
(580 -3.27287e-13 0)
(580 -2.86033e-13 0)
(580 -2.24662e-13 0)
(580 -3.96311e-13 0)
(580 -2.77596e-13 0)
(580 -3.25336e-13 0)
(580 -3.7378e-13 0)
(580 -7.06469e-13 0)
(580 -8.85601e-13 0)
(580 -8.8204e-13 0)
(580 -8.4085e-13 0)
(580 -6.73492e-13 0)
(580 -6.62874e-13 0)
(580 -6.72349e-13 0)
(580 -5.61715e-13 0)
(580 -6.56556e-13 0)
(580 -6.61628e-13 0)
(580 -8.44807e-13 0)
(580 -9.31692e-13 0)
(580 -1.01257e-12 0)
(580 -1.01656e-12 0)
(580 -1.12021e-12 0)
(580 -1.23842e-12 0)
(580 -8.9807e-13 0)
(580 -1.01628e-12 0)
(580 -7.74113e-13 0)
(580 -6.18403e-13 0)
(580 1.80628e-13 0)
(580 2.78298e-13 0)
(580 3.66922e-13 0)
(580 4.40652e-13 0)
(580 5.52658e-13 0)
(580 6.77785e-13 0)
(580 9.17207e-13 0)
(580 1.26296e-12 0)
(580 2.05433e-12 0)
(580 2.38696e-12 0)
(580 2.22989e-12 0)
(580 1.8033e-12 0)
(580 1.42662e-12 0)
(580 1.22302e-12 0)
(580 1.37523e-12 0)
(580 1.4874e-12 0)
(580 2.04721e-12 0)
(580 2.36501e-12 0)
(580 2.36944e-12 0)
(580 2.62947e-12 0)
(580 2.2695e-12 0)
(580 2.30918e-12 0)
(580 1.76543e-12 0)
(580 1.24285e-12 0)
(580 1.15213e-12 0)
(580 1.20213e-12 0)
(580 1.00881e-12 0)
(580 1.02566e-12 0)
(580 9.11177e-13 0)
(580 7.46464e-13 0)
(580 9.43665e-13 0)
(580 1.19782e-12 0)
(580 8.44959e-13 0)
(580 7.06873e-13 0)
(580 4.11344e-13 0)
(580 1.21975e-14 0)
(580 -4.69463e-13 0)
(580 -8.53536e-13 0)
(580 -7.37979e-13 0)
(580 -5.86378e-13 0)
(580 -6.1264e-13 0)
(580 -4.80904e-13 0)
(580 -4.62052e-14 0)
(580 6.75944e-13 0)
(580 1.11139e-12 0)
(580 1.33146e-12 0)
(580 1.50413e-12 0)
(580 1.33477e-12 0)
(580 4.62446e-14 0)
(580 -4.93872e-14 0)
(580 -6.73723e-14 0)
(580 -2.11997e-13 0)
(580 -2.72962e-13 0)
(580 -1.74162e-13 0)
(580 -2.03532e-13 0)
(580 -1.78514e-13 0)
(580 -1.26719e-13 0)
(580 -2.56612e-13 0)
(580 -6.12341e-13 0)
(580 -6.73585e-13 0)
(580 -4.38631e-13 0)
(580 -2.75506e-13 0)
(580 -3.52349e-14 0)
(580 2.48988e-13 0)
(580 8.67602e-14 0)
(580 -1.62066e-13 0)
(580 -4.47511e-13 0)
(580 -3.55412e-13 0)
(580 -2.92176e-13 0)
(580 -3.22027e-13 0)
(580 -3.87674e-13 0)
(580 -4.98878e-13 0)
(580 -5.34035e-13 0)
(580 -4.15876e-13 0)
(580 -4.27018e-13 0)
(580 -6.06297e-13 0)
(580 -4.92442e-13 0)
(580 -3.49564e-13 0)
(580 3.06735e-13 0)
(580 5.97307e-13 0)
(580 7.40374e-13 0)
(580 6.84023e-13 0)
(580 3.83593e-13 0)
(580 4.8135e-13 0)
(580 6.73451e-13 0)
(580 9.42983e-13 0)
(580 1.38198e-12 0)
(580 1.51754e-12 0)
(580 1.59747e-12 0)
(580 1.66227e-12 0)
(580 1.62296e-12 0)
(580 1.52865e-12 0)
(580 1.33773e-12 0)
(580 1.30467e-12 0)
(580 1.45365e-12 0)
(580 1.5203e-12 0)
(580 1.63431e-12 0)
(580 2.19418e-12 0)
(580 2.18172e-12 0)
(580 2.19743e-12 0)
(580 2.41075e-12 0)
(580 2.57605e-12 0)
(580 2.35822e-12 0)
(580 1.68644e-12 0)
(580 1.6878e-12 0)
(580 1.55346e-12 0)
(580 1.46766e-12 0)
(580 1.2948e-12 0)
(580 1.13889e-12 0)
(580 9.49953e-13 0)
(580 7.78091e-13 0)
(580 8.81123e-13 0)
(580 8.97635e-13 0)
(580 5.80308e-13 0)
(580 4.88859e-13 0)
(580 2.43568e-13 0)
(580 -9.92325e-14 0)
(580 -1.2727e-13 0)
(580 -7.40426e-14 0)
(580 1.59497e-13 0)
(580 1.99195e-13 0)
(580 4.42176e-13 0)
(580 3.35774e-13 0)
(580 3.10901e-13 0)
(580 6.95648e-13 0)
(580 8.4884e-13 0)
(580 9.52911e-13 0)
(580 8.94898e-13 0)
(580 -7.96661e-14 0)
(580 -4.81959e-14 0)
(580 1.25208e-13 0)
(580 5.79168e-14 0)
(580 -1.0275e-13 0)
(580 -4.88327e-14 0)
(580 -1.85875e-13 0)
(580 -3.35123e-13 0)
(580 -2.60485e-13 0)
(580 -2.40741e-13 0)
(580 -2.43331e-13 0)
(580 -9.52141e-14 0)
(580 2.90973e-13 0)
(580 5.15366e-13 0)
(580 5.24447e-13 0)
(580 7.47693e-13 0)
(580 3.89138e-13 0)
(580 3.67364e-13 0)
(580 -1.19633e-13 0)
(580 -1.66526e-13 0)
(580 -1.74658e-13 0)
(580 -1.90601e-13 0)
(580 -2.20845e-13 0)
(580 -1.82864e-13 0)
(580 -1.21486e-13 0)
(580 -1.78296e-13 0)
(580 -3.71623e-13 0)
(580 -5.64959e-13 0)
(580 -4.92838e-13 0)
(580 -4.15122e-14 0)
(580 5.26328e-13 0)
(580 8.17079e-13 0)
(580 8.08482e-13 0)
(580 8.32788e-13 0)
(580 7.77548e-13 0)
(580 1.0692e-12 0)
(580 1.38815e-12 0)
(580 1.44863e-12 0)
(580 1.31086e-12 0)
(580 1.3669e-12 0)
(580 8.67943e-13 0)
(580 6.62512e-13 0)
(580 1.02268e-12 0)
(580 1.32029e-12 0)
(580 1.53332e-12 0)
(580 1.36796e-12 0)
(580 1.32693e-12 0)
(580 1.26385e-12 0)
(580 1.42769e-12 0)
(580 1.56204e-12 0)
(580 1.69244e-12 0)
(580 1.72123e-12 0)
(580 1.81528e-12 0)
(580 1.98669e-12 0)
(580 2.22801e-12 0)
(580 2.01885e-12 0)
(580 1.61684e-12 0)
(580 1.60422e-12 0)
(580 1.66658e-12 0)
(580 1.64378e-12 0)
(580 1.39057e-12 0)
(580 1.42412e-12 0)
(580 1.18988e-12 0)
(580 9.6882e-13 0)
(580 9.54902e-13 0)
(580 1.0028e-12 0)
(580 9.52721e-13 0)
(580 9.21835e-13 0)
(580 8.02782e-13 0)
(580 6.04881e-13 0)
(580 2.17182e-13 0)
(580 2.69179e-14 0)
(580 1.37879e-13 0)
(580 3.34375e-13 0)
(580 2.36569e-13 0)
(580 2.57297e-14 0)
(580 1.26582e-14 0)
(580 4.86259e-14 0)
(580 1.17684e-13 0)
(580 3.32275e-13 0)
(580 4.14894e-14 0)
(580 4.15817e-15 0)
(580 1.91465e-14 0)
(580 -1.34895e-13 0)
(580 -2.47101e-13 0)
(580 -2.29041e-13 0)
(580 -2.5607e-13 0)
(580 -4.89734e-13 0)
(580 -5.56471e-13 0)
(580 -2.71736e-13 0)
(580 -1.21736e-13 0)
(580 1.26424e-13 0)
(580 2.78544e-13 0)
(580 4.03138e-13 0)
(580 2.79301e-13 0)
(580 3.07999e-13 0)
(580 3.91608e-13 0)
(580 4.94044e-13 0)
(580 4.76992e-13 0)
(580 3.39331e-13 0)
(580 1.79339e-13 0)
(580 -4.28011e-14 0)
(580 -4.11927e-13 0)
(580 -2.8744e-13 0)
(580 -2.86857e-13 0)
(580 -6.03257e-13 0)
(580 -7.16422e-13 0)
(580 -7.74324e-13 0)
(580 -7.21357e-13 0)
(580 -1.70254e-13 0)
(580 7.33528e-14 0)
(580 2.86751e-13 0)
(580 8.34261e-13 0)
(580 1.11651e-12 0)
(580 1.0655e-12 0)
(580 1.0858e-12 0)
(580 1.02105e-12 0)
(580 9.3659e-13 0)
(580 7.14999e-13 0)
(580 2.2091e-13 0)
(580 8.79387e-14 0)
(580 -5.74961e-14 0)
(580 2.83345e-14 0)
(580 2.74345e-13 0)
(580 7.21533e-13 0)
(580 7.59898e-13 0)
(580 5.96578e-13 0)
(580 1.14817e-12 0)
(580 1.37802e-12 0)
(580 1.30392e-12 0)
(580 1.41169e-12 0)
(580 1.59052e-12 0)
(580 1.40804e-12 0)
(580 1.24028e-12 0)
(580 1.50731e-12 0)
(580 1.56787e-12 0)
(580 1.58508e-12 0)
(580 1.39487e-12 0)
(580 1.29817e-12 0)
(580 1.30444e-12 0)
(580 1.43528e-12 0)
(580 1.45005e-12 0)
(580 1.34828e-12 0)
(580 1.02672e-12 0)
(580 1.0782e-12 0)
(580 1.21332e-12 0)
(580 1.34007e-12 0)
(580 1.31897e-12 0)
(580 1.31374e-12 0)
(580 9.32935e-13 0)
(580 4.24936e-13 0)
(580 4.6535e-13 0)
(580 5.58471e-13 0)
(580 5.96439e-13 0)
(580 2.50772e-13 0)
(580 -2.69699e-14 0)
(580 -5.98963e-13 0)
(580 -6.89865e-13 0)
(580 -6.49267e-13 0)
(580 -3.61802e-13 0)
(580 -1.29645e-14 0)
(580 -1.43303e-13 0)
(580 -2.14662e-13 0)
(580 -4.12643e-13 0)
(580 -4.73019e-13 0)
(580 -6.06327e-13 0)
(580 -4.17818e-13 0)
(580 -5.25966e-13 0)
(580 -5.04522e-13 0)
(580 -4.77377e-13 0)
(580 -4.07179e-13 0)
(580 -3.52498e-13 0)
(580 -3.69964e-13 0)
(580 -2.6009e-13 0)
(580 -2.13118e-13 0)
(580 -2.32392e-13 0)
(580 -4.06066e-15 0)
(580 2.50148e-13 0)
(580 5.76133e-13 0)
(580 6.11489e-13 0)
(580 4.56637e-13 0)
(580 2.29751e-13 0)
(580 -1.16812e-14 0)
(580 -1.66888e-13 0)
(580 -2.09755e-13 0)
(580 -2.40604e-13 0)
(580 -3.56838e-13 0)
(580 -3.87456e-13 0)
(580 -2.24209e-13 0)
(580 -9.7266e-14 0)
(580 -1.20374e-13 0)
(580 2.05682e-14 0)
(580 2.38315e-13 0)
(580 5.25812e-13 0)
(580 5.32799e-13 0)
(580 4.08511e-13 0)
(580 2.14706e-13 0)
(580 2.84218e-13 0)
(580 6.75775e-14 0)
(580 -3.98581e-13 0)
(580 -3.64695e-13 0)
(580 -2.78624e-13 0)
(580 -2.54857e-13 0)
(580 -1.54618e-13 0)
(580 -2.11452e-14 0)
(580 9.47322e-14 0)
(580 1.35489e-13 0)
(580 7.67854e-13 0)
(580 9.55046e-13 0)
(580 1.06545e-12 0)
(580 1.25382e-12 0)
(580 1.24324e-12 0)
(580 1.25668e-12 0)
(580 1.06846e-12 0)
(580 1.14916e-12 0)
(580 1.41457e-12 0)
(580 1.59275e-12 0)
(580 1.3323e-12 0)
(580 1.18146e-12 0)
(580 1.35178e-12 0)
(580 1.46836e-12 0)
(580 1.31186e-12 0)
(580 1.26442e-12 0)
(580 1.22319e-12 0)
(580 1.332e-12 0)
(580 1.38401e-12 0)
(580 1.32424e-12 0)
(580 1.15868e-12 0)
(580 9.07693e-13 0)
(580 7.48412e-13 0)
(580 7.50217e-13 0)
(580 6.06864e-13 0)
(580 5.83167e-13 0)
(580 5.726e-13 0)
(580 6.44264e-13 0)
(580 4.38667e-13 0)
(580 7.64308e-14 0)
(580 9.61693e-14 0)
(580 1.72368e-13 0)
(580 9.30735e-14 0)
(580 -1.19135e-13 0)
(580 3.14478e-14 0)
(580 -8.73114e-14 0)
(580 -7.24756e-14 0)
(580 5.38642e-14 0)
(580 1.0855e-13 0)
(580 1.28592e-13 0)
(580 -1.69599e-14 0)
(580 -5.28772e-14 0)
(580 -1.66064e-13 0)
(580 -4.49097e-13 0)
(580 -6.13845e-13 0)
(580 -6.84083e-13 0)
(580 -6.4651e-13 0)
(580 -5.20593e-13 0)
(580 -3.3705e-13 0)
(580 -1.33718e-13 0)
(580 -2.97003e-14 0)
(580 1.52247e-13 0)
(580 2.94624e-13 0)
(580 2.17718e-13 0)
(580 1.76541e-13 0)
(580 8.78027e-15 0)
(580 -2.48365e-13 0)
(580 -2.2401e-13 0)
(580 -1.5253e-13 0)
(580 -1.59705e-13 0)
(580 -1.46762e-13 0)
(580 -2.12749e-13 0)
(580 -2.32655e-13 0)
(580 -2.67613e-14 0)
(580 1.19878e-13 0)
(580 4.3878e-14 0)
(580 9.99569e-14 0)
(580 4.37681e-13 0)
(580 3.98879e-13 0)
(580 1.12424e-13 0)
(580 1.09129e-13 0)
(580 4.0647e-14 0)
(580 4.68328e-14 0)
(580 -1.52888e-13 0)
(580 -1.44479e-13 0)
(580 -3.15841e-13 0)
(580 -4.86193e-13 0)
(580 -3.64626e-13 0)
(580 -1.29942e-13 0)
(580 2.65436e-13 0)
(580 5.50147e-13 0)
(580 5.94694e-13 0)
(580 1.04691e-12 0)
(580 1.15313e-12 0)
(580 1.07252e-12 0)
(580 9.98156e-13 0)
(580 1.00182e-12 0)
(580 9.09e-13 0)
(580 1.05539e-12 0)
(580 1.34318e-12 0)
(580 1.4463e-12 0)
(580 1.46206e-12 0)
(580 1.35707e-12 0)
(580 1.31527e-12 0)
(580 1.07449e-12 0)
(580 1.19947e-12 0)
(580 1.34814e-12 0)
(580 1.20004e-12 0)
(580 1.09057e-12 0)
(580 6.85791e-13 0)
(580 3.95207e-13 0)
(580 3.05623e-13 0)
(580 4.53852e-13 0)
(580 9.23468e-13 0)
(580 4.90192e-13 0)
(580 3.3136e-13 0)
(580 1.91249e-13 0)
(580 2.32147e-13 0)
(580 -2.58771e-14 0)
(580 -1.50111e-13 0)
(580 -3.53246e-13 0)
(580 -2.99242e-13 0)
(580 -7.1964e-14 0)
(580 -1.05622e-13 0)
(580 -4.52876e-14 0)
(580 1.32972e-13 0)
(580 4.87507e-13 0)
(580 5.02693e-13 0)
(580 6.288e-13 0)
(580 4.58176e-13 0)
(580 5.12871e-13 0)
(580 3.36531e-13 0)
(580 7.95597e-14 0)
(580 -2.15322e-13 0)
(580 -2.63719e-13 0)
(580 -3.94339e-13 0)
(580 -5.15501e-13 0)
(580 -6.86897e-13 0)
(580 -7.56418e-13 0)
(580 -5.66349e-13 0)
(580 -3.19034e-13 0)
(580 -1.02792e-13 0)
(580 -3.24055e-13 0)
(580 -4.94361e-13 0)
(580 -4.72839e-13 0)
(580 -4.16007e-13 0)
(580 -4.24e-13 0)
(580 -6.01915e-13 0)
(580 -5.34177e-13 0)
(580 -5.27555e-13 0)
(580 -4.94017e-13 0)
(580 -3.847e-13 0)
(580 -1.9746e-13 0)
(580 -1.39982e-13 0)
(580 -1.08842e-13 0)
(580 -2.74429e-15 0)
(580 -2.54737e-14 0)
(580 1.95776e-13 0)
(580 3.41244e-13 0)
(580 3.08051e-13 0)
(580 2.8927e-13 0)
(580 4.41286e-13 0)
(580 3.12795e-13 0)
(580 3.64238e-13 0)
(580 1.85995e-13 0)
(580 -7.74758e-14 0)
(580 -3.02247e-13 0)
(580 -1.82235e-13 0)
(580 3.14878e-13 0)
(580 7.24558e-13 0)
(580 8.56952e-13 0)
(580 1.07016e-12 0)
(580 1.13007e-12 0)
(580 1.28624e-12 0)
(580 1.54861e-12 0)
(580 1.40515e-12 0)
(580 1.50043e-12 0)
(580 1.40736e-12 0)
(580 1.4499e-12 0)
(580 1.29756e-12 0)
(580 1.32629e-12 0)
(580 1.26534e-12 0)
(580 1.15086e-12 0)
(580 1.01214e-12 0)
(580 9.11697e-13 0)
(580 1.06799e-12 0)
(580 9.96066e-13 0)
(580 8.25425e-13 0)
(580 4.38846e-13 0)
(580 3.11914e-13 0)
(580 3.94606e-13 0)
(580 6.50467e-13 0)
(580 1.05596e-12 0)
(580 1.06875e-12 0)
(580 7.78578e-13 0)
(580 6.00153e-13 0)
(580 2.90356e-13 0)
(580 -1.01017e-13 0)
(580 -2.29855e-13 0)
(580 -1.96685e-13 0)
(580 -3.98642e-13 0)
(580 -5.52026e-13 0)
(580 -4.36486e-13 0)
(580 1.19777e-14 0)
(580 -1.31373e-13 0)
(580 1.00453e-13 0)
(580 3.98582e-13 0)
(580 4.15225e-13 0)
(580 3.79704e-13 0)
(580 4.6835e-13 0)
(580 4.40765e-13 0)
(580 4.94547e-13 0)
(580 3.99681e-13 0)
(580 6.01562e-14 0)
(580 -3.14307e-13 0)
(580 -4.00007e-13 0)
(580 -7.15499e-13 0)
(580 -1.05703e-12 0)
(580 -1.27036e-12 0)
(580 -1.13728e-12 0)
(580 -7.98217e-13 0)
(580 -3.94875e-13 0)
(580 -2.84014e-13 0)
(580 -2.08734e-13 0)
(580 -5.23117e-14 0)
(580 4.12505e-14 0)
(580 8.26796e-14 0)
(580 -9.8488e-14 0)
(580 -2.36835e-13 0)
(580 -1.92433e-13 0)
(580 -1.49004e-13 0)
(580 1.91927e-15 0)
(580 3.30142e-14 0)
(580 -1.09134e-13 0)
(580 -3.75001e-14 0)
(580 2.0708e-13 0)
(580 1.98144e-13 0)
(580 -2.0173e-13 0)
(580 -1.80569e-13 0)
(580 -9.93902e-14 0)
(580 -1.42184e-13 0)
(580 -1.11244e-13 0)
(580 -1.09434e-13 0)
(580 -8.9427e-14 0)
(580 -4.55503e-14 0)
(580 -1.30389e-13 0)
(580 1.82758e-13 0)
(580 3.19286e-13 0)
(580 5.02515e-13 0)
(580 6.1758e-13 0)
(580 8.12154e-13 0)
(580 8.69024e-13 0)
(580 8.66936e-13 0)
(580 1.06634e-12 0)
(580 1.416e-12 0)
(580 1.77813e-12 0)
(580 2.08173e-12 0)
(580 2.23104e-12 0)
(580 1.82462e-12 0)
(580 1.5052e-12 0)
(580 1.13054e-12 0)
(580 7.44281e-13 0)
(580 6.69418e-13 0)
(580 5.05594e-13 0)
(580 6.0631e-13 0)
(580 8.4209e-13 0)
(580 8.92127e-13 0)
(580 9.23005e-13 0)
(580 7.85187e-13 0)
(580 8.1986e-13 0)
(580 8.75086e-13 0)
(580 1.16568e-12 0)
(580 1.05069e-12 0)
(580 1.10065e-12 0)
(580 9.53486e-13 0)
(580 7.63409e-13 0)
(580 4.91898e-13 0)
(580 3.13809e-13 0)
(580 2.33763e-13 0)
(580 3.16718e-13 0)
(580 6.29317e-13 0)
(580 2.78558e-13 0)
(580 -3.88941e-13 0)
(580 2.6088e-13 0)
(580 7.32428e-14 0)
(580 1.75459e-13 0)
(580 1.39376e-13 0)
(580 4.09058e-13 0)
(580 4.51775e-13 0)
(580 9.27169e-13 0)
(580 7.30623e-13 0)
(580 5.94958e-13 0)
(580 5.81962e-13 0)
(580 5.55021e-13 0)
(580 2.17891e-13 0)
(580 1.25505e-13 0)
(580 -2.25806e-13 0)
(580 -3.46477e-13 0)
(580 -4.20999e-13 0)
(580 -5.90979e-13 0)
(580 -5.55131e-13 0)
(580 -4.12737e-13 0)
(580 1.49101e-13 0)
(580 4.59748e-13 0)
(580 7.10533e-13 0)
(580 7.72915e-13 0)
(580 7.26738e-13 0)
(580 6.89883e-13 0)
(580 6.37401e-13 0)
(580 7.90797e-13 0)
(580 9.77951e-13 0)
(580 9.44356e-13 0)
(580 7.69121e-13 0)
(580 2.81185e-13 0)
(580 1.18793e-13 0)
(580 5.98937e-14 0)
(580 1.77923e-13 0)
(580 -2.84975e-13 0)
(580 -3.568e-13 0)
(580 -2.88695e-13 0)
(580 -2.88956e-13 0)
(580 -2.7933e-13 0)
(580 3.06953e-14 0)
(580 -4.401e-14 0)
(580 1.18528e-13 0)
(580 2.66334e-13 0)
(580 5.77062e-13 0)
(580 6.31156e-13 0)
(580 5.5779e-13 0)
(580 5.03851e-13 0)
(580 6.31906e-13 0)
(580 7.32293e-13 0)
(580 1.02577e-12 0)
(580 1.03207e-12 0)
(580 8.85656e-13 0)
(580 8.3057e-13 0)
(580 1.00808e-12 0)
(580 1.09359e-12 0)
(580 1.03294e-12 0)
(580 1.38069e-12 0)
(580 1.08407e-12 0)
(580 5.86676e-13 0)
(580 5.55347e-13 0)
(580 7.22571e-13 0)
(580 1.15038e-12 0)
(580 1.01714e-12 0)
(580 9.12082e-13 0)
(580 8.4158e-13 0)
(580 9.10168e-13 0)
(580 1.4936e-12 0)
(580 1.48222e-12 0)
(580 1.38965e-12 0)
(580 9.30409e-13 0)
(580 4.71379e-13 0)
(580 2.46151e-13 0)
(580 7.47344e-14 0)
(580 -1.25601e-14 0)
(580 1.32831e-14 0)
(580 1.22064e-13 0)
(580 -5.9778e-14 0)
(580 -2.7372e-13 0)
(580 -4.02775e-13 0)
(580 -6.82766e-13 0)
(580 2.27932e-14 0)
(580 1.85914e-13 0)
(580 1.84572e-13 0)
(580 1.167e-13 0)
(580 2.8856e-13 0)
(580 2.56077e-13 0)
(580 3.27545e-13 0)
(580 3.31608e-13 0)
(580 3.52826e-13 0)
(580 2.7904e-13 0)
(580 3.39121e-13 0)
(580 6.90396e-13 0)
(580 7.0062e-13 0)
(580 6.72254e-13 0)
(580 4.79048e-13 0)
(580 6.64056e-13 0)
(580 5.78709e-13 0)
(580 4.77596e-14 0)
(580 -2.00705e-13 0)
(580 -7.44926e-14 0)
(580 3.38667e-13 0)
(580 8.04895e-13 0)
(580 9.3941e-13 0)
(580 9.68172e-13 0)
(580 1.1828e-12 0)
(580 1.23774e-12 0)
(580 1.0766e-12 0)
(580 1.15106e-12 0)
(580 1.18475e-12 0)
(580 1.02894e-12 0)
(580 9.93143e-13 0)
(580 5.64625e-13 0)
(580 2.77862e-13 0)
(580 1.94032e-13 0)
(580 -2.96576e-14 0)
(580 -9.7051e-14 0)
(580 -4.70568e-13 0)
(580 -3.36163e-13 0)
(580 -1.46906e-13 0)
(580 -8.39285e-14 0)
(580 2.27228e-13 0)
(580 4.2334e-13 0)
(580 7.09801e-13 0)
(580 1.06971e-12 0)
(580 1.00476e-12 0)
(580 8.80133e-13 0)
(580 7.85456e-13 0)
(580 7.61279e-13 0)
(580 8.00274e-13 0)
(580 1.14762e-12 0)
(580 1.20514e-12 0)
(580 6.0607e-13 0)
(580 3.26772e-13 0)
(580 6.16601e-13 0)
(580 8.47272e-13 0)
(580 1.2294e-12 0)
(580 1.51912e-12 0)
(580 1.82201e-12 0)
(580 1.92013e-12 0)
(580 1.66599e-12 0)
(580 1.47145e-12 0)
(580 1.22152e-12 0)
(580 9.56026e-13 0)
(580 5.103e-13 0)
(580 3.34554e-13 0)
(580 4.44249e-14 0)
(580 2.0138e-13 0)
(580 5.06148e-13 0)
(580 4.62566e-13 0)
(580 5.30513e-13 0)
(580 3.08652e-13 0)
(580 -6.23986e-15 0)
(580 -3.05806e-13 0)
(580 -3.71192e-13 0)
(580 -5.02196e-13 0)
(580 -5.62924e-13 0)
(580 -3.47603e-13 0)
(580 -3.99891e-13 0)
(580 -5.53185e-13 0)
(580 -6.39094e-13 0)
(580 -7.53113e-14 0)
(580 1.07631e-14 0)
(580 -1.24321e-13 0)
(580 -1.96045e-13 0)
(580 -3.52478e-13 0)
(580 -4.02169e-13 0)
(580 -6.27225e-13 0)
(580 -5.26862e-13 0)
(580 -1.59016e-13 0)
(580 -1.74347e-13 0)
(580 -1.32216e-13 0)
(580 3.29893e-14 0)
(580 1.19263e-13 0)
(580 2.66787e-13 0)
(580 4.08028e-13 0)
(580 3.80124e-13 0)
(580 5.33139e-13 0)
(580 5.30788e-13 0)
(580 3.7098e-13 0)
(580 3.35858e-13 0)
(580 5.36859e-13 0)
(580 8.04084e-13 0)
(580 1.33834e-12 0)
(580 1.50487e-12 0)
(580 1.54496e-12 0)
(580 1.58876e-12 0)
(580 1.27411e-12 0)
(580 1.29026e-12 0)
(580 1.22807e-12 0)
(580 1.16903e-12 0)
(580 1.33153e-12 0)
(580 1.16327e-12 0)
(580 6.55663e-13 0)
(580 4.41249e-13 0)
(580 1.22273e-13 0)
(580 2.05544e-13 0)
(580 1.04241e-15 0)
(580 6.67988e-14 0)
(580 2.47486e-15 0)
(580 1.62844e-13 0)
(580 2.07422e-13 0)
(580 3.4858e-13 0)
(580 5.72226e-13 0)
(580 7.61113e-13 0)
(580 8.24536e-13 0)
(580 9.08859e-13 0)
(580 9.11101e-13 0)
(580 8.6888e-13 0)
(580 8.75936e-13 0)
(580 9.39525e-13 0)
(580 9.89155e-13 0)
(580 8.36938e-13 0)
(580 7.80055e-13 0)
(580 9.10681e-13 0)
(580 1.06671e-12 0)
(580 1.16602e-12 0)
(580 1.27313e-12 0)
(580 1.44083e-12 0)
(580 1.83924e-12 0)
(580 1.88052e-12 0)
(580 1.71341e-12 0)
(580 1.13615e-12 0)
(580 1.16211e-12 0)
(580 1.15724e-12 0)
(580 1.1961e-12 0)
(580 1.0447e-12 0)
(580 6.63085e-13 0)
(580 -2.04425e-13 0)
(580 -7.13915e-13 0)
(580 -7.55146e-13 0)
(580 -5.96675e-13 0)
(580 -1.89274e-13 0)
(580 -1.97618e-13 0)
(580 -3.76376e-13 0)
(580 -3.33978e-13 0)
(580 -4.78687e-13 0)
(580 -2.17614e-13 0)
(580 6.51656e-14 0)
(580 1.60875e-13 0)
(580 6.00897e-14 0)
(580 -1.22996e-13 0)
(580 -1.53368e-13 0)
(580 -3.54161e-13 0)
(580 -7.00003e-13 0)
(580 -8.80619e-13 0)
(580 -6.64545e-13 0)
(580 -7.5029e-13 0)
(580 -4.42611e-13 0)
(580 -7.13156e-13 0)
(580 -3.55012e-13 0)
(580 -8.43171e-14 0)
(580 5.057e-14 0)
(580 2.88258e-13 0)
(580 4.65614e-13 0)
(580 5.1519e-13 0)
(580 4.64398e-13 0)
(580 6.55851e-13 0)
(580 7.90906e-13 0)
(580 8.38132e-13 0)
(580 7.54881e-13 0)
(580 8.28559e-13 0)
(580 8.18839e-13 0)
(580 8.71077e-13 0)
(580 1.27067e-12 0)
(580 1.18906e-12 0)
(580 1.30228e-12 0)
(580 1.36335e-12 0)
(580 1.45703e-12 0)
(580 1.32598e-12 0)
(580 1.34392e-12 0)
(580 1.24822e-12 0)
(580 1.02139e-12 0)
(580 8.39356e-13 0)
(580 6.13242e-13 0)
(580 5.95847e-13 0)
(580 5.24251e-13 0)
(580 6.80091e-13 0)
(580 3.42768e-13 0)
(580 3.29593e-13 0)
(580 7.52233e-13 0)
(580 8.11164e-13 0)
(580 8.39217e-13 0)
(580 7.80261e-13 0)
(580 5.27725e-13 0)
(580 6.95004e-13 0)
(580 7.1719e-13 0)
(580 9.13345e-13 0)
(580 1.06017e-12 0)
(580 9.44404e-13 0)
(580 8.77959e-13 0)
(580 8.06618e-13 0)
(580 8.13041e-13 0)
(580 1.2019e-12 0)
(580 1.11003e-12 0)
(580 8.72593e-13 0)
(580 1.08733e-12 0)
(580 8.17227e-13 0)
(580 8.97253e-13 0)
(580 9.35982e-13 0)
(580 1.37441e-12 0)
(580 1.59387e-12 0)
(580 1.48577e-12 0)
(580 1.54244e-12 0)
(580 1.37945e-12 0)
(580 1.22444e-12 0)
(580 1.43257e-12 0)
(580 1.30396e-12 0)
(580 9.27805e-13 0)
(580 4.85397e-13 0)
(580 2.7828e-13 0)
(580 3.5148e-13 0)
(580 2.27622e-13 0)
(580 4.88724e-13 0)
(580 5.78184e-13 0)
(580 7.63863e-13 0)
(580 1.07363e-12 0)
(580 9.23742e-13 0)