/*--------------------------------*- C++ -*----------------------------------*\
| =========                 |                                                 |
| \\      /  F ield         | OpenFOAM: The Open Source CFD Toolbox           |
|  \\    /   O peration     | Version:  2306                                  |
|   \\  /    A nd           | Website:  www.openfoam.com                      |
|    \\/     M anipulation  |                                                 |
\*---------------------------------------------------------------------------*/
FoamFile
{
    version     2.0;
    format      ascii;
    arch        "LSB;label=32;scalar=64";
    class       volVectorField;
    location    "3e-05";
    object      U;
}
// * * * * * * * * * * * * * * * * * * * * * * * * * * * * * * * * * * * * * //

dimensions      [0 1 -1 0 0 0 0];

internalField   nonuniform List<vector> 
8941
(
(580 -1.11876e-13 0)
(580 -4.09625e-13 0)
(580 -5.97743e-13 0)
(580 -1.13926e-13 0)
(580 2.94004e-13 0)
(580 8.16597e-13 0)
(580 8.14344e-13 0)
(580 2.97045e-13 0)
(580 1.16609e-13 0)
(580 2.10558e-14 0)
(580 -5.3249e-15 0)
(580 1.63934e-14 0)
(580 8.85928e-14 0)
(580 -3.23466e-13 0)
(580 -9.9233e-13 0)
(580 -8.87324e-13 0)
(580 -6.18494e-13 0)
(580 -3.53433e-13 0)
(580 3.65721e-14 0)
(580 2.40409e-13 0)
(580 -2.13128e-14 0)
(580 -9.88776e-14 0)
(580 -1.30706e-13 0)
(580 -3.32361e-13 0)
(580 -5.03732e-13 0)
(580 -3.33839e-13 0)
(580 -2.66129e-13 0)
(580 -1.92206e-13 0)
(580 -3.90661e-13 0)
(580 -5.54888e-13 0)
(580 -4.99946e-13 0)
(580 -2.78034e-13 0)
(580 -1.22499e-13 0)
(580 -1.74661e-13 0)
(580 -1.30864e-13 0)
(580 6.55965e-14 0)
(580 -1.36755e-13 0)
(580 -5.00722e-13 0)
(580 -6.7796e-13 0)
(580 -7.01599e-13 0)
(580 -5.62617e-13 0)
(580 -2.02965e-13 0)
(580 2.84153e-13 0)
(580 -1.76572e-13 0)
(580 -1.26553e-13 0)
(580 1.30985e-13 0)
(580 1.43009e-14 0)
(580 -3.5208e-14 0)
(580 6.3897e-14 0)
(580 2.07367e-13 0)
(580 4.37456e-13 0)
(580 4.66084e-13 0)
(580 7.84604e-13 0)
(580 6.3623e-13 0)
(580 5.66153e-13 0)
(580 4.24482e-13 0)
(580 1.88211e-13 0)
(580 -2.7585e-13 0)
(580 -2.90298e-13 0)
(580 -2.88422e-13 0)
(580 -3.39332e-15 0)
(580 4.57959e-13 0)
(580 2.69822e-13 0)
(580 9.57445e-13 0)
(580 1.51646e-12 0)
(580 1.75802e-12 0)
(580 8.54324e-13 0)
(580 7.17929e-13 0)
(580 8.86936e-13 0)
(580 8.86877e-13 0)
(580 6.93779e-13 0)
(580 4.54703e-13 0)
(580 5.31652e-13 0)
(580 3.77707e-13 0)
(580 5.9195e-13 0)
(580 2.68629e-13 0)
(580 -4.11523e-14 0)
(580 8.85247e-14 0)
(580 1.68165e-13 0)
(580 2.43993e-13 0)
(580 -2.5957e-13 0)
(580 -4.86164e-13 0)
(580 -2.54077e-13 0)
(580 3.00547e-13 0)
(580 6.51824e-13 0)
(580 9.37792e-13 0)
(580 8.92858e-13 0)
(580 7.30926e-13 0)
(580 1.02838e-13 0)
(580 -1.11855e-14 0)
(580 -3.94398e-13 0)
(580 -4.81284e-13 0)
(580 -4.80544e-13 0)
(580 -8.43022e-13 0)
(580 -9.93613e-13 0)
(580 -7.84494e-13 0)
(580 -3.4904e-13 0)
(580 -1.67525e-13 0)
(580 2.73488e-13 0)
(580 3.63319e-13 0)
(580 -7.73363e-14 0)
(580 -5.12653e-13 0)
(580 -8.19214e-13 0)
(580 -1.0288e-12 0)
(580 -8.98631e-13 0)
(580 -4.9371e-13 0)
(580 -1.1034e-14 0)
(580 -1.35575e-13 0)
(580 -7.15971e-13 0)
(580 -7.65525e-13 0)
(580 -6.36768e-13 0)
(580 -2.03045e-13 0)
(580 -1.95827e-13 0)
(580 -2.41931e-13 0)
(580 -1.37941e-13 0)
(580 -1.77436e-13 0)
(580 -5.52325e-13 0)
(580 -1.16477e-12 0)
(580 -1.13262e-12 0)
(580 -9.90447e-13 0)
(580 -6.67966e-13 0)
(580 -2.32133e-13 0)
(580 8.65594e-14 0)
(580 8.56883e-14 0)
(580 3.30007e-13 0)
(580 3.85582e-13 0)
(580 3.09299e-13 0)
(580 2.00953e-13 0)
(580 3.92379e-13 0)
(580 8.8928e-13 0)
(580 9.79633e-13 0)
(580 1.09473e-12 0)
(580 1.18575e-12 0)
(580 8.78516e-13 0)
(580 7.13954e-13 0)
(580 1.92574e-13 0)
(580 1.39464e-13 0)
(580 -1.25899e-14 0)
(580 1.74051e-13 0)
(580 -8.55537e-14 0)
(580 2.69469e-13 0)
(580 6.06212e-13 0)
(580 7.43675e-13 0)
(580 1.63841e-12 0)
(580 1.64796e-12 0)
(580 1.63171e-12 0)
(580 1.04988e-12 0)
(580 8.57828e-13 0)
(580 9.37558e-13 0)
(580 8.68675e-13 0)
(580 3.78617e-13 0)
(580 2.55066e-13 0)
(580 4.47335e-13 0)
(580 4.00909e-13 0)
(580 4.37974e-13 0)
(580 1.85932e-13 0)
(580 -2.7082e-13 0)
(580 -2.04928e-13 0)
(580 3.68547e-13 0)
(580 4.73518e-13 0)
(580 6.77832e-14 0)
(580 -1.1996e-13 0)
(580 2.00864e-13 0)
(580 1.06292e-13 0)
(580 2.87839e-13 0)
(580 2.55053e-13 0)
(580 5.56233e-13 0)
(580 6.65797e-13 0)
(580 5.7055e-13 0)
(580 5.86512e-13 0)
(580 2.31561e-13 0)
(580 -5.92228e-13 0)
(580 -6.82531e-13 0)
(580 -5.20386e-13 0)
(580 -1.02485e-13 0)
(580 -1.28389e-13 0)
(580 -6.10127e-13 0)
(580 -8.78321e-13 0)
(580 -6.8057e-13 0)
(580 -4.62197e-13 0)
(580 -5.92817e-13 0)
(580 -7.86438e-13 0)
(580 -1.31975e-12 0)
(580 -1.33711e-12 0)
(580 -1.37585e-12 0)
(580 -1.02631e-12 0)
(580 -4.24397e-13 0)
(580 -6.27565e-13 0)
(580 -6.59808e-13 0)
(580 -6.27631e-13 0)
(580 -4.04921e-13 0)
(580 -4.1875e-13 0)
(580 -4.1561e-13 0)
(580 1.36721e-14 0)
(580 1.81156e-13 0)
(580 -5.76752e-14 0)
(580 -2.83859e-13 0)
(580 -7.14653e-13 0)
(580 -8.90161e-13 0)
(580 -6.45582e-13 0)
(580 4.20448e-14 0)
(580 1.19094e-13 0)
(580 2.8957e-13 0)
(580 5.44145e-13 0)
(580 5.43894e-13 0)
(580 2.13895e-13 0)
(580 2.08427e-13 0)
(580 5.66993e-15 0)
(580 -2.2136e-13 0)
(580 -1.22306e-13 0)
(580 -2.33817e-13 0)
(580 -1.70226e-13 0)
(580 -3.06362e-13 0)
(580 1.51392e-13 0)
(580 1.55461e-13 0)
(580 -7.80898e-14 0)
(580 -2.38958e-14 0)
(580 4.77253e-13 0)
(580 5.61645e-13 0)
(580 7.3132e-13 0)
(580 1.00198e-12 0)
(580 1.10834e-12 0)
(580 1.19503e-12 0)
(580 1.44499e-12 0)
(580 1.62567e-12 0)
(580 1.7209e-12 0)
(580 1.55056e-12 0)
(580 1.43455e-12 0)
(580 1.34231e-12 0)
(580 1.562e-12 0)
(580 1.2977e-12 0)
(580 9.48558e-13 0)
(580 8.03723e-13 0)
(580 1.1398e-12 0)
(580 8.50647e-13 0)
(580 1.15537e-12 0)
(580 9.777e-13 0)
(580 7.9974e-13 0)
(580 1.07158e-12 0)
(580 5.16116e-13 0)
(580 1.37489e-13 0)
(580 5.11567e-14 0)
(580 -1.27273e-14 0)
(580 -1.06492e-13 0)
(580 1.49674e-14 0)
(580 -2.84636e-14 0)
(580 1.28987e-13 0)
(580 3.58969e-13 0)
(580 5.90093e-13 0)
(580 6.06394e-13 0)
(580 7.32353e-13 0)
(580 3.48259e-13 0)
(580 2.58563e-13 0)
(580 1.09095e-13 0)
(580 2.0635e-13 0)
(580 5.69466e-14 0)
(580 -2.9309e-13 0)
(580 -4.35454e-13 0)
(580 -6.72251e-13 0)
(580 -8.64415e-13 0)
(580 -6.52761e-13 0)
(580 -4.49637e-13 0)
(580 -5.49061e-13 0)
(580 -3.4249e-13 0)
(580 -1.01531e-13 0)
(580 4.93041e-14 0)
(580 -1.7177e-14 0)
(580 1.33554e-13 0)
(580 2.73258e-13 0)
(580 2.5315e-13 0)
(580 2.35704e-13 0)
(580 -1.07381e-13 0)
(580 -2.53629e-13 0)
(580 -1.46928e-13 0)
(580 9.02132e-14 0)
(580 6.09802e-14 0)
(580 4.80984e-13 0)
(580 6.15658e-13 0)
(580 7.27131e-13 0)
(580 7.69348e-13 0)
(580 9.42135e-13 0)
(580 1.02377e-12 0)
(580 1.07551e-12 0)
(580 5.36962e-13 0)
(580 2.40297e-13 0)
(580 -1.45149e-13 0)
(580 -1.44104e-13 0)
(580 -7.35474e-14 0)
(580 6.69596e-14 0)
(580 2.70094e-13 0)
(580 9.47425e-14 0)
(580 4.89382e-14 0)
(580 1.94885e-13 0)
(580 4.95167e-13 0)
(580 6.20443e-13 0)
(580 2.69641e-13 0)
(580 3.36292e-13 0)
(580 5.53431e-13 0)
(580 8.19172e-13 0)
(580 1.20589e-12 0)
(580 1.42205e-12 0)
(580 1.69215e-12 0)
(580 1.07715e-12 0)
(580 5.07441e-13 0)
(580 1.08601e-12 0)
(580 2.26251e-12 0)
(580 2.04085e-12 0)
(580 1.63669e-12 0)
(580 1.88962e-12 0)
(580 2.26835e-12 0)
(580 2.65697e-12 0)
(580 2.29133e-12 0)
(580 1.89543e-12 0)
(580 1.79279e-12 0)
(580 1.52015e-12 0)
(580 1.44359e-12 0)
(580 1.7284e-12 0)
(580 8.29917e-13 0)
(580 2.19287e-13 0)
(580 -6.96695e-13 0)
(580 -4.10105e-15 0)
(580 3.25504e-13 0)
(580 2.72765e-13 0)
(580 4.49384e-13 0)
(580 3.45118e-13 0)
(580 2.89315e-13 0)
(580 3.43228e-13 0)
(580 6.32081e-13 0)
(580 7.64967e-13 0)
(580 7.74559e-13 0)
(580 8.12336e-13 0)
(580 9.51463e-13 0)
(580 8.89023e-13 0)
(580 4.62066e-13 0)
(580 3.14509e-13 0)
(580 2.52182e-13 0)
(580 1.38403e-13 0)
(580 -6.73546e-14 0)
(580 -2.15572e-13 0)
(580 -1.90087e-13 0)
(580 1.23149e-13 0)
(580 1.45398e-13 0)
(580 1.21835e-13 0)
(580 2.53528e-13 0)
(580 4.06416e-13 0)
(580 2.79947e-13 0)
(580 1.18503e-13 0)
(580 1.04391e-13 0)
(580 1.74788e-13 0)
(580 5.42792e-13 0)
(580 2.34332e-13 0)
(580 8.73254e-14 0)
(580 1.98375e-13 0)
(580 -2.50524e-13 0)
(580 -7.94577e-14 0)
(580 1.32402e-13 0)
(580 4.30852e-13 0)
(580 1.02513e-12 0)
(580 1.02024e-12 0)
(580 9.1614e-13 0)
(580 5.95097e-13 0)
(580 4.68592e-13 0)
(580 4.46463e-13 0)
(580 4.16164e-13 0)
(580 2.49336e-13 0)
(580 2.5916e-13 0)
(580 1.54073e-13 0)
(580 4.62609e-13 0)
(580 6.01915e-13 0)
(580 6.68569e-13 0)
(580 7.56489e-13 0)
(580 6.24398e-13 0)
(580 6.2342e-13 0)
(580 5.85577e-13 0)
(580 2.14273e-13 0)
(580 7.90133e-13 0)
(580 8.84033e-13 0)
(580 6.78074e-13 0)
(580 6.3533e-13 0)
(580 3.08522e-13 0)
(580 1.46383e-13 0)
(580 3.17598e-13 0)
(580 4.92622e-13 0)
(580 5.27518e-13 0)
(580 1.21279e-12 0)
(580 1.37438e-12 0)
(580 1.75882e-12 0)
(580 1.79852e-12 0)
(580 1.91689e-12 0)
(580 2.05412e-12 0)
(580 2.40487e-12 0)
(580 2.58266e-12 0)
(580 1.88405e-12 0)
(580 1.48861e-12 0)
(580 1.8741e-12 0)
(580 1.7761e-12 0)
(580 1.67345e-12 0)
(580 1.111e-12 0)
(580 6.07006e-13 0)
(580 -4.59983e-13 0)
(580 -4.81275e-14 0)
(580 2.06714e-14 0)
(580 1.78763e-13 0)
(580 4.40537e-13 0)
(580 6.596e-13 0)
(580 6.63028e-13 0)
(580 6.29105e-13 0)
(580 5.97196e-13 0)
(580 8.18206e-13 0)
(580 9.05003e-13 0)
(580 7.31542e-13 0)
(580 8.05312e-13 0)
(580 7.99885e-13 0)
(580 8.0227e-13 0)
(580 5.31622e-13 0)
(580 6.63648e-13 0)
(580 8.79842e-13 0)
(580 6.88957e-13 0)
(580 5.21923e-13 0)
(580 6.61174e-13 0)
(580 7.36471e-13 0)
(580 6.22501e-13 0)
(580 4.29835e-13 0)
(580 4.10739e-13 0)
(580 2.44872e-13 0)
(580 4.98224e-14 0)
(580 9.33787e-14 0)
(580 4.28225e-15 0)
(580 5.92385e-14 0)
(580 5.03672e-14 0)
(580 -5.90405e-13 0)
(580 -2.22902e-14 0)
(580 3.15112e-13 0)
(580 2.89734e-13 0)
(580 2.48515e-13 0)
(580 5.66927e-13 0)
(580 6.74157e-13 0)
(580 1.13748e-12 0)
(580 1.48584e-12 0)
(580 1.56364e-12 0)
(580 1.25471e-12 0)
(580 1.17817e-12 0)
(580 8.20446e-13 0)
(580 8.51228e-13 0)
(580 7.71468e-13 0)
(580 6.75081e-13 0)
(580 9.95672e-13 0)
(580 1.01895e-12 0)
(580 9.29563e-13 0)
(580 1.11064e-12 0)
(580 1.18646e-12 0)
(580 1.04909e-12 0)
(580 8.65081e-13 0)
(580 5.03236e-13 0)
(580 1.89644e-13 0)
(580 6.41321e-13 0)
(580 8.71114e-13 0)
(580 1.01501e-12 0)
(580 7.71803e-13 0)
(580 3.70464e-13 0)
(580 -1.70554e-13 0)
(580 -3.07314e-13 0)
(580 6.72652e-14 0)
(580 4.38939e-13 0)
(580 5.55584e-13 0)
(580 4.22265e-13 0)
(580 7.34015e-13 0)
(580 9.64965e-13 0)
(580 1.34673e-12 0)
(580 1.40138e-12 0)
(580 1.37044e-12 0)
(580 1.15785e-12 0)
(580 1.13137e-12 0)
(580 1.21164e-12 0)
(580 1.15877e-12 0)
(580 9.85758e-13 0)
(580 7.59334e-13 0)
(580 4.13584e-13 0)
(580 -3.89172e-13 0)
(580 -8.72899e-13 0)
(580 -5.89457e-14 0)
(580 -1.66327e-13 0)
(580 -9.31599e-14 0)
(580 5.64498e-14 0)
(580 3.30506e-13 0)
(580 4.58394e-13 0)
(580 4.01105e-13 0)
(580 3.97225e-13 0)
(580 5.62486e-13 0)
(580 6.03965e-13 0)
(580 6.38787e-13 0)
(580 9.33913e-13 0)
(580 1.01537e-12 0)
(580 1.3689e-12 0)
(580 1.56689e-12 0)
(580 1.48423e-12 0)
(580 1.49579e-12 0)
(580 1.48643e-12 0)
(580 1.74062e-12 0)
(580 1.77802e-12 0)
(580 1.62059e-12 0)
(580 1.36117e-12 0)
(580 1.41769e-12 0)
(580 1.22028e-12 0)
(580 9.56961e-13 0)
(580 7.11937e-13 0)
(580 6.68213e-13 0)
(580 7.84374e-13 0)
(580 7.39875e-13 0)
(580 -2.6922e-13 0)
(580 -5.98333e-13 0)
(580 -3.64055e-13 0)
(580 7.51134e-15 0)
(580 5.04681e-13 0)
(580 6.01294e-13 0)
(580 9.02739e-13 0)
(580 8.40297e-13 0)
(580 1.00671e-12 0)
(580 1.30605e-12 0)
(580 1.58789e-12 0)
(580 1.35121e-12 0)
(580 1.71048e-12 0)
(580 1.41358e-12 0)
(580 1.19873e-12 0)
(580 8.76641e-13 0)
(580 7.54275e-13 0)
(580 9.91708e-13 0)
(580 8.92143e-13 0)
(580 9.41928e-13 0)
(580 9.66766e-13 0)
(580 1.02179e-12 0)
(580 8.07752e-13 0)
(580 3.26608e-13 0)
(580 -5.85195e-14 0)
(580 -3.76399e-14 0)
(580 2.2945e-13 0)
(580 7.77935e-13 0)
(580 8.74541e-13 0)
(580 8.66322e-13 0)
(580 8.47217e-13 0)
(580 7.18086e-13 0)
(580 2.7905e-13 0)
(580 2.71175e-13 0)
(580 3.37567e-13 0)
(580 7.34294e-15 0)
(580 5.30266e-14 0)
(580 1.02398e-13 0)
(580 4.0637e-13 0)
(580 6.39812e-13 0)
(580 7.01847e-13 0)
(580 3.30014e-13 0)
(580 1.81966e-14 0)
(580 2.40956e-13 0)
(580 4.48597e-13 0)
(580 3.13344e-13 0)
(580 1.94346e-14 0)
(580 -4.26683e-13 0)
(580 -1.09616e-12 0)
(580 -1.30834e-12 0)
(580 -1.62661e-12 0)
(580 2.1206e-14 0)
(580 4.41781e-14 0)
(580 2.14641e-13 0)
(580 2.24202e-13 0)
(580 1.19749e-13 0)
(580 1.81649e-13 0)
(580 3.38092e-13 0)
(580 3.23576e-13 0)
(580 4.49168e-13 0)
(580 5.28808e-13 0)
(580 6.51449e-13 0)
(580 9.35474e-13 0)
(580 1.0874e-12 0)
(580 1.51805e-12 0)
(580 1.86902e-12 0)
(580 1.88045e-12 0)
(580 1.60489e-12 0)
(580 1.99916e-12 0)
(580 2.03131e-12 0)
(580 1.82426e-12 0)
(580 1.55541e-12 0)
(580 1.70478e-12 0)
(580 1.90138e-12 0)
(580 1.66894e-12 0)
(580 1.40053e-12 0)
(580 1.28938e-12 0)
(580 1.2308e-12 0)
(580 9.69816e-13 0)
(580 5.35457e-13 0)
(580 1.80199e-13 0)
(580 1.32783e-13 0)
(580 -2.11834e-13 0)
(580 -1.92643e-13 0)
(580 1.51624e-13 0)
(580 6.66924e-13 0)
(580 7.13286e-13 0)
(580 7.47249e-13 0)
(580 6.8469e-13 0)
(580 8.11362e-13 0)
(580 1.08925e-12 0)
(580 1.20344e-12 0)
(580 1.2656e-12 0)
(580 1.28692e-12 0)
(580 1.29144e-12 0)
(580 1.15719e-12 0)
(580 9.18544e-13 0)
(580 5.32496e-13 0)
(580 5.10852e-13 0)
(580 4.24551e-13 0)
(580 1.87143e-13 0)
(580 2.27389e-13 0)
(580 3.34034e-13 0)
(580 1.32241e-13 0)
(580 1.02502e-13 0)
(580 9.94801e-14 0)
(580 4.42415e-13 0)
(580 9.80128e-13 0)
(580 8.06257e-13 0)
(580 5.46505e-13 0)
(580 7.031e-13 0)
(580 6.80288e-13 0)
(580 6.40265e-13 0)
(580 6.38402e-13 0)
(580 9.54921e-13 0)
(580 1.5702e-13 0)
(580 -2.07748e-13 0)
(580 -2.74159e-13 0)
(580 -2.58522e-13 0)
(580 -4.12874e-13 0)
(580 -6.2277e-13 0)
(580 -7.93572e-13 0)
(580 -4.54607e-13 0)
(580 -5.86225e-13 0)
(580 -5.36964e-13 0)
(580 -6.68405e-13 0)
(580 -8.46145e-13 0)
(580 -9.9248e-13 0)
(580 -9.05179e-13 0)
(580 -1.40599e-12 0)
(580 -1.90721e-12 0)
(580 -2.72293e-15 0)
(580 1.60463e-13 0)
(580 3.54733e-13 0)
(580 3.61777e-13 0)
(580 1.52858e-13 0)
(580 1.45481e-13 0)
(580 1.61021e-13 0)
(580 9.3933e-14 0)
(580 6.94575e-14 0)
(580 3.39593e-13 0)
(580 5.95219e-13 0)
(580 8.86789e-13 0)
(580 1.04867e-12 0)
(580 1.02789e-12 0)
(580 1.29779e-12 0)
(580 1.62276e-12 0)
(580 1.68935e-12 0)
(580 1.80451e-12 0)
(580 1.5692e-12 0)
(580 1.21845e-12 0)
(580 1.0773e-12 0)
(580 1.12134e-12 0)
(580 9.82859e-13 0)
(580 8.01747e-13 0)
(580 7.58796e-13 0)
(580 7.34589e-13 0)
(580 5.17788e-13 0)
(580 3.98787e-13 0)
(580 7.31505e-14 0)
(580 1.61931e-13 0)
(580 2.17252e-13 0)
(580 2.68044e-13 0)
(580 7.03492e-14 0)
(580 2.91578e-13 0)
(580 4.38476e-13 0)
(580 4.11924e-13 0)
(580 5.27435e-13 0)
(580 7.22231e-13 0)
(580 8.67456e-13 0)
(580 9.54793e-13 0)
(580 1.07269e-12 0)
(580 9.05078e-13 0)
(580 9.8616e-13 0)
(580 9.72088e-13 0)
(580 1.07426e-12 0)
(580 9.98892e-13 0)
(580 8.13109e-13 0)
(580 6.84818e-13 0)
(580 7.29982e-13 0)
(580 6.635e-13 0)
(580 4.77003e-13 0)
(580 5.18831e-13 0)
(580 5.21594e-13 0)
(580 4.36088e-13 0)
(580 2.65303e-13 0)
(580 4.18696e-13 0)
(580 4.10526e-13 0)
(580 2.15326e-13 0)
(580 -8.09462e-14 0)
(580 -9.72173e-14 0)
(580 -4.91827e-14 0)
(580 2.45196e-13 0)
(580 8.40377e-13 0)
(580 1.02099e-12 0)
(580 6.83645e-13 0)
(580 7.55649e-14 0)
(580 -7.02209e-13 0)
(580 -1.10607e-12 0)
(580 -1.40379e-12 0)
(580 -1.67342e-12 0)
(580 -1.75465e-12 0)
(580 -1.53672e-12 0)
(580 -1.16233e-12 0)
(580 -9.89308e-13 0)
(580 -1.271e-12 0)
(580 -1.28622e-12 0)
(580 -8.12851e-13 0)
(580 -3.97384e-13 0)
(580 -7.57382e-13 0)
(580 -1.58013e-12 0)
(580 1.26667e-13 0)
(580 8.15921e-14 0)
(580 1.92082e-13 0)
(580 2.94863e-13 0)
(580 2.71706e-13 0)
(580 2.91056e-13 0)
(580 2.03371e-13 0)
(580 2.45888e-13 0)
(580 1.98509e-13 0)
(580 2.62558e-13 0)
(580 5.17093e-13 0)
(580 7.66544e-13 0)
(580 9.58671e-13 0)
(580 7.89017e-13 0)
(580 9.12968e-13 0)
(580 1.21914e-12 0)
(580 1.75444e-12 0)
(580 1.59748e-12 0)
(580 1.35329e-12 0)
(580 1.10464e-12 0)
(580 8.85278e-13 0)
(580 6.79915e-13 0)
(580 6.05038e-13 0)
(580 4.79155e-13 0)
(580 4.92644e-13 0)
(580 5.19535e-13 0)
(580 3.80558e-13 0)
(580 3.20075e-13 0)
(580 1.47194e-13 0)
(580 -2.82918e-14 0)
(580 1.1207e-13 0)
(580 7.11347e-13 0)
(580 9.33634e-13 0)
(580 8.97112e-13 0)
(580 8.34488e-13 0)
(580 6.10869e-13 0)
(580 6.72595e-13 0)
(580 9.01745e-13 0)
(580 8.65995e-13 0)
(580 6.95838e-13 0)
(580 7.46127e-13 0)
(580 7.5556e-13 0)
(580 9.20115e-13 0)
(580 1.21e-12 0)
(580 1.23647e-12 0)
(580 1.17675e-12 0)
(580 1.31542e-12 0)
(580 1.52114e-12 0)
(580 1.68001e-12 0)
(580 1.52074e-12 0)
(580 1.16132e-12 0)
(580 1.06397e-12 0)
(580 7.05972e-13 0)
(580 3.22687e-13 0)
(580 4.12916e-13 0)
(580 2.74726e-13 0)
(580 -2.82369e-13 0)
(580 -7.37146e-13 0)
(580 -8.19647e-13 0)
(580 -6.10754e-13 0)
(580 -1.66315e-13 0)
(580 1.7755e-13 0)
(580 5.82979e-13 0)
(580 3.55624e-13 0)
(580 2.17395e-13 0)
(580 1.65378e-13 0)
(580 -1.2859e-13 0)
(580 -7.62708e-13 0)
(580 -1.17963e-12 0)
(580 -1.34233e-12 0)
(580 -1.58576e-12 0)
(580 -1.92219e-12 0)
(580 -1.52966e-12 0)
(580 -1.71496e-12 0)
(580 -1.70831e-12 0)
(580 -1.74471e-12 0)
(580 -1.44815e-12 0)
(580 -8.12469e-13 0)
(580 -7.18957e-13 0)
(580 -6.98323e-13 0)
(580 5.85559e-14 0)
(580 -5.0071e-14 0)
(580 -2.21047e-13 0)
(580 -1.73816e-13 0)
(580 -7.83796e-14 0)
(580 7.98137e-15 0)
(580 2.25866e-13 0)
(580 4.54885e-13 0)
(580 3.65217e-13 0)
(580 1.73969e-13 0)
(580 2.40335e-13 0)
(580 5.91316e-13 0)
(580 9.58271e-13 0)
(580 8.28042e-13 0)
(580 8.25205e-13 0)
(580 9.82177e-13 0)
(580 1.41996e-12 0)
(580 1.47749e-12 0)
(580 1.42033e-12 0)
(580 1.23091e-12 0)
(580 9.86654e-13 0)
(580 6.44824e-13 0)
(580 3.21655e-13 0)
(580 1.86882e-13 0)
(580 1.31244e-13 0)
(580 -8.99007e-14 0)
(580 -4.26589e-14 0)
(580 1.46393e-13 0)
(580 2.68771e-13 0)
(580 3.55575e-14 0)
(580 1.27393e-13 0)
(580 3.7817e-13 0)
(580 8.39852e-13 0)
(580 7.72302e-13 0)
(580 7.17986e-13 0)
(580 9.43637e-13 0)
(580 1.16746e-12 0)
(580 1.18205e-12 0)
(580 1.13911e-12 0)
(580 1.22084e-12 0)
(580 1.26112e-12 0)
(580 1.27694e-12 0)
(580 1.35052e-12 0)
(580 1.43032e-12 0)
(580 1.49611e-12 0)
(580 1.60815e-12 0)
(580 1.73831e-12 0)
(580 1.70145e-12 0)
(580 1.61406e-12 0)
(580 1.35025e-12 0)
(580 1.30235e-12 0)
(580 1.18832e-12 0)
(580 8.37775e-13 0)
(580 4.65649e-13 0)
(580 6.28078e-13 0)
(580 3.68583e-13 0)
(580 -9.05294e-14 0)
(580 -1.22371e-13 0)
(580 -6.75954e-14 0)
(580 -7.0965e-14 0)
(580 1.7461e-13 0)
(580 1.91802e-13 0)
(580 3.32096e-13 0)
(580 -1.31869e-13 0)
(580 -3.3468e-13 0)
(580 -3.56746e-13 0)
(580 -2.70917e-13 0)
(580 -3.45801e-13 0)
(580 -7.0407e-13 0)
(580 -8.42917e-13 0)
(580 -1.16168e-12 0)
(580 -1.47744e-12 0)
(580 -1.71315e-12 0)
(580 -2.1043e-12 0)
(580 -1.91642e-12 0)
(580 -1.70567e-12 0)
(580 -1.1458e-12 0)
(580 -7.99112e-13 0)
(580 -3.78083e-13 0)
(580 -2.63747e-13 0)
(580 -1.98759e-13 0)
(580 -1.25273e-13 0)
(580 -2.59198e-13 0)
(580 -3.02501e-13 0)
(580 -3.10131e-13 0)
(580 -1.45488e-13 0)
(580 -1.76002e-13 0)
(580 1.08453e-14 0)
(580 1.46933e-15 0)
(580 -1.90078e-13 0)
(580 -3.42932e-13 0)
(580 -2.34683e-13 0)
(580 7.80326e-14 0)
(580 4.64434e-13 0)
(580 5.56227e-13 0)
(580 5.88106e-13 0)
(580 4.86843e-13 0)
(580 7.77915e-13 0)
(580 7.87976e-13 0)
(580 8.1534e-13 0)
(580 9.43181e-13 0)
(580 9.43712e-13 0)
(580 6.44509e-13 0)
(580 2.07893e-13 0)
(580 -4.70674e-14 0)
(580 -5.39476e-14 0)
(580 -1.45803e-13 0)
(580 -2.2133e-13 0)
(580 -3.32817e-13 0)
(580 -2.92057e-13 0)
(580 -1.41774e-13 0)
(580 -1.24049e-13 0)
(580 -1.39384e-13 0)
(580 1.21443e-13 0)
(580 1.45726e-13 0)
(580 1.1155e-12 0)
(580 1.75799e-12 0)
(580 1.59544e-12 0)
(580 1.74308e-12 0)
(580 1.91989e-12 0)
(580 1.83139e-12 0)
(580 1.86761e-12 0)
(580 1.74301e-12 0)
(580 1.48545e-12 0)
(580 1.54509e-12 0)
(580 1.77472e-12 0)
(580 1.76692e-12 0)
(580 1.65856e-12 0)
(580 1.31257e-12 0)
(580 1.30727e-12 0)
(580 1.07477e-12 0)
(580 1.0801e-12 0)
(580 9.3749e-13 0)
(580 9.29782e-13 0)
(580 3.74381e-13 0)
(580 2.06063e-13 0)
(580 -1.80164e-14 0)
(580 2.97439e-13 0)
(580 4.47167e-13 0)
(580 3.24482e-13 0)
(580 2.09385e-13 0)
(580 1.3417e-13 0)
(580 2.02805e-14 0)
(580 -2.69578e-14 0)
(580 -2.5915e-14 0)
(580 -5.70272e-14 0)
(580 -2.7034e-14 0)
(580 -1.98814e-13 0)
(580 -2.18885e-13 0)
(580 -4.77623e-13 0)
(580 -7.60011e-13 0)
(580 -1.16548e-12 0)
(580 -1.55939e-12 0)
(580 -1.51372e-12 0)
(580 -1.42605e-12 0)
(580 -1.05214e-12 0)
(580 -6.35438e-13 0)
(580 -3.69677e-13 0)
(580 6.72817e-14 0)
(580 -2.94537e-13 0)
(580 -2.68218e-13 0)
(580 -2.44155e-13 0)
(580 -2.52255e-13 0)
(580 -4.01766e-13 0)
(580 -3.82828e-13 0)
(580 -4.83104e-13 0)
(580 -5.62424e-13 0)
(580 -3.92661e-13 0)
(580 -2.25049e-13 0)
(580 -2.98885e-15 0)
(580 8.86065e-14 0)
(580 -2.31555e-15 0)
(580 2.46578e-14 0)
(580 2.41194e-13 0)
(580 1.0732e-13 0)
(580 -7.22656e-14 0)
(580 -6.10519e-14 0)
(580 1.95018e-13 0)
(580 4.91307e-13 0)
(580 6.89041e-13 0)
(580 1.11283e-12 0)
(580 1.19689e-12 0)
(580 1.02234e-12 0)
(580 8.94275e-13 0)
(580 6.6508e-13 0)
(580 5.45207e-13 0)
(580 2.8042e-13 0)
(580 3.17711e-13 0)
(580 1.3034e-14 0)
(580 6.05512e-13 0)
(580 8.19332e-13 0)
(580 4.5524e-13 0)
(580 2.37397e-13 0)
(580 1.58006e-14 0)
(580 6.63551e-13 0)
(580 9.40346e-13 0)
(580 1.16481e-12 0)
(580 1.90397e-12 0)
(580 1.89214e-12 0)
(580 1.8487e-12 0)
(580 1.93766e-12 0)
(580 2.24596e-12 0)
(580 2.24014e-12 0)
(580 2.18296e-12 0)
(580 2.1804e-12 0)
(580 2.09217e-12 0)
(580 1.72765e-12 0)
(580 1.67243e-12 0)
(580 1.66301e-12 0)
(580 1.50529e-12 0)
(580 8.94763e-13 0)
(580 6.28067e-13 0)
(580 5.95925e-13 0)
(580 5.94901e-13 0)
(580 2.82954e-13 0)
(580 1.03029e-14 0)
(580 -1.33279e-13 0)
(580 1.11825e-13 0)
(580 4.4611e-13 0)
(580 6.26798e-13 0)
(580 4.78072e-13 0)
(580 1.83769e-13 0)
(580 7.61526e-14 0)
(580 2.63135e-13 0)
(580 5.20246e-13 0)
(580 4.91377e-13 0)
(580 3.20669e-13 0)
(580 1.39456e-13 0)
(580 -1.18735e-13 0)
(580 -3.2985e-13 0)
(580 -6.44755e-13 0)
(580 -1.06376e-12 0)
(580 -9.60764e-13 0)
(580 -5.37631e-13 0)
(580 -1.76061e-13 0)
(580 -2.14847e-13 0)
(580 -2.84236e-13 0)
(580 -4.26158e-13 0)
(580 -2.42161e-14 0)
(580 5.29013e-13 0)
(580 2.43551e-14 0)
(580 -2.12145e-14 0)
(580 5.71325e-14 0)
(580 -1.7944e-13 0)
(580 -1.98691e-13 0)
(580 -4.57004e-13 0)
(580 -4.56238e-13 0)
(580 -4.51642e-13 0)
(580 -2.65389e-14 0)
(580 5.01175e-13 0)
(580 7.09966e-13 0)
(580 6.47412e-13 0)
(580 4.19373e-13 0)
(580 1.21209e-13 0)
(580 1.70799e-13 0)
(580 2.64426e-13 0)
(580 1.85861e-13 0)
(580 -4.44372e-14 0)
(580 2.23992e-13 0)
(580 5.20513e-13 0)
(580 4.68306e-13 0)
(580 1.50677e-13 0)
(580 6.19272e-13 0)
(580 8.85969e-13 0)
(580 9.42446e-13 0)
(580 1.03432e-12 0)
(580 1.00446e-12 0)
(580 1.19146e-12 0)
(580 1.205e-12 0)
(580 1.31036e-12 0)
(580 1.14222e-12 0)
(580 1.28564e-12 0)
(580 1.35322e-12 0)
(580 1.60668e-12 0)
(580 1.5707e-12 0)
(580 1.24282e-12 0)
(580 1.24974e-12 0)
(580 1.41117e-12 0)
(580 1.94834e-12 0)
(580 2.02813e-12 0)
(580 2.05309e-12 0)
(580 1.91131e-12 0)
(580 1.88093e-12 0)
(580 2.08268e-12 0)
(580 1.82808e-12 0)
(580 1.7254e-12 0)
(580 1.28472e-12 0)
(580 8.67852e-13 0)
(580 7.41538e-13 0)
(580 4.53533e-13 0)
(580 3.79399e-13 0)
(580 1.38658e-13 0)
(580 -6.11382e-14 0)
(580 -1.27623e-13 0)
(580 -3.73152e-13 0)
(580 -5.81533e-13 0)
(580 -4.50418e-13 0)
(580 -1.0348e-13 0)
(580 2.61565e-13 0)
(580 6.14958e-13 0)
(580 5.78621e-13 0)
(580 3.97133e-13 0)
(580 2.02181e-13 0)
(580 1.55675e-13 0)
(580 8.38218e-14 0)
(580 2.64561e-14 0)
(580 -2.42741e-14 0)
(580 -1.8689e-13 0)
(580 -6.98346e-13 0)
(580 -6.66044e-13 0)
(580 -6.91584e-13 0)
(580 -6.33289e-13 0)
(580 -4.39668e-13 0)
(580 -2.33414e-13 0)
(580 -1.39201e-13 0)
(580 -8.43343e-14 0)
(580 -1.8704e-13 0)
(580 -3.89338e-13 0)
(580 -5.04928e-13 0)
(580 -1.90107e-13 0)
(580 9.5523e-14 0)
(580 9.65153e-14 0)
(580 1.01967e-13 0)
(580 5.86592e-15 0)
(580 -4.53682e-14 0)
(580 2.91957e-14 0)
(580 -8.82458e-14 0)
(580 -3.50935e-13 0)
(580 -3.5309e-13 0)
(580 -1.92155e-13 0)
(580 -1.45423e-14 0)
(580 2.44838e-13 0)
(580 2.05121e-13 0)
(580 2.84964e-13 0)
(580 6.71387e-13 0)
(580 6.94856e-13 0)
(580 6.68185e-13 0)
(580 4.86007e-13 0)
(580 3.44231e-13 0)
(580 2.69138e-13 0)
(580 6.90155e-14 0)
(580 1.22597e-13 0)
(580 2.57245e-13 0)
(580 3.91124e-13 0)
(580 5.56372e-13 0)
(580 6.86396e-13 0)
(580 6.49938e-13 0)
(580 6.2274e-13 0)
(580 8.29218e-13 0)
(580 1.08759e-12 0)
(580 1.38479e-12 0)
(580 1.57026e-12 0)
(580 1.71346e-12 0)
(580 2.07402e-12 0)
(580 1.93816e-12 0)
(580 1.65443e-12 0)
(580 1.46531e-12 0)
(580 1.37931e-12 0)
(580 1.68291e-12 0)
(580 1.6512e-12 0)
(580 1.6855e-12 0)
(580 1.66676e-12 0)
(580 1.52427e-12 0)
(580 1.3916e-12 0)
(580 1.02556e-12 0)
(580 8.86054e-13 0)
(580 4.25459e-13 0)
(580 2.21576e-13 0)
(580 -2.0718e-13 0)
(580 -4.64896e-13 0)
(580 -3.48355e-13 0)
(580 -5.71937e-13 0)
(580 -6.42946e-13 0)
(580 -8.25543e-13 0)
(580 -8.12303e-13 0)
(580 -7.97012e-13 0)
(580 -5.9992e-13 0)
(580 -2.71858e-13 0)
(580 8.44803e-14 0)
(580 -2.27904e-14 0)
(580 -1.89956e-13 0)
(580 -2.76596e-13 0)
(580 -3.86555e-13 0)
(580 -7.32915e-13 0)
(580 -1.03859e-12 0)
(580 -9.1611e-13 0)
(580 -6.87892e-13 0)
(580 -6.24554e-13 0)
(580 -8.38382e-13 0)
(580 -7.72156e-13 0)
(580 -7.58388e-13 0)
(580 -3.83431e-13 0)
(580 -4.78906e-13 0)
(580 -6.29893e-13 0)
(580 -6.79992e-13 0)
(580 -7.75764e-13 0)
(580 -1.01762e-12 0)
(580 -1.04416e-12 0)
(580 -1.07645e-12 0)
(580 -8.81355e-13 0)
(580 -1.11465e-14 0)
(580 1.86397e-14 0)
(580 -4.52068e-15 0)
(580 1.10639e-13 0)
(580 1.61286e-13 0)
(580 3.17896e-13 0)
(580 2.2815e-13 0)
(580 1.40091e-13 0)
(580 1.5852e-14 0)
(580 -4.70241e-14 0)
(580 -5.72472e-14 0)
(580 6.00853e-14 0)
(580 2.291e-13 0)
(580 4.17705e-13 0)
(580 5.09352e-13 0)
(580 6.14359e-13 0)
(580 5.77497e-13 0)
(580 7.24131e-13 0)
(580 7.37488e-13 0)
(580 7.42486e-13 0)
(580 6.29579e-13 0)
(580 8.17016e-13 0)
(580 9.36986e-13 0)
(580 9.62111e-13 0)
(580 1.09795e-12 0)
(580 1.09834e-12 0)
(580 9.82058e-13 0)
(580 9.80151e-13 0)
(580 1.18838e-12 0)
(580 1.58653e-12 0)
(580 1.99679e-12 0)
(580 2.05313e-12 0)
(580 2.33485e-12 0)
(580 2.36739e-12 0)
(580 1.89521e-12 0)
(580 1.59267e-12 0)
(580 1.2046e-12 0)
(580 1.11961e-12 0)
(580 1.08947e-12 0)
(580 1.1379e-12 0)
(580 1.25997e-12 0)
(580 1.15547e-12 0)
(580 8.18893e-13 0)
(580 4.23642e-13 0)
(580 -8.61617e-14 0)
(580 -2.0594e-13 0)
(580 -4.14558e-13 0)
(580 -7.69648e-13 0)
(580 -9.71868e-13 0)
(580 -8.25732e-13 0)
(580 -7.31848e-13 0)
(580 -7.73339e-13 0)
(580 -8.87788e-13 0)
(580 -1.17736e-12 0)
(580 -1.17214e-12 0)
(580 -9.99718e-13 0)
(580 -8.6151e-13 0)
(580 -5.85287e-13 0)
(580 -1.27168e-13 0)
(580 -3.94861e-14 0)
(580 -2.76449e-13 0)
(580 -1.00517e-12 0)
(580 -1.48643e-12 0)
(580 -1.79154e-12 0)
(580 -1.84608e-12 0)
(580 -1.62347e-12 0)
(580 -1.58652e-12 0)
(580 -1.59327e-12 0)
(580 -1.43564e-12 0)
(580 -1.21981e-12 0)
(580 -1.04773e-12 0)
(580 -1.11292e-12 0)
(580 -1.05854e-12 0)
(580 -1.08514e-12 0)
(580 -9.37352e-13 0)
(580 -8.38079e-13 0)
(580 -8.63972e-13 0)
(580 -1.06899e-12 0)
(580 -1.15804e-12 0)
(580 -1.04381e-12 0)
(580 1.76591e-13 0)
(580 1.94292e-13 0)
(580 1.60246e-14 0)
(580 -1.5886e-13 0)
(580 -1.26965e-13 0)
(580 -5.12301e-15 0)
(580 4.60753e-13 0)
(580 6.21092e-13 0)
(580 5.727e-13 0)
(580 4.93793e-13 0)
(580 2.9242e-13 0)
(580 2.57921e-14 0)
(580 3.05191e-13 0)
(580 1.22842e-13 0)
(580 -6.93865e-14 0)
(580 -1.58467e-13 0)
(580 -7.02272e-14 0)
(580 -4.85872e-14 0)
(580 5.55028e-14 0)
(580 4.22224e-13 0)
(580 6.20827e-13 0)
(580 9.06044e-13 0)
(580 1.22678e-12 0)
(580 1.34293e-12 0)
(580 1.4574e-12 0)
(580 1.32246e-12 0)
(580 1.46964e-12 0)
(580 1.4462e-12 0)
(580 1.34922e-12 0)
(580 1.38734e-12 0)
(580 1.56544e-12 0)
(580 1.65148e-12 0)
(580 1.39458e-12 0)
(580 1.18016e-12 0)
(580 1.18986e-12 0)
(580 9.93638e-13 0)
(580 7.13566e-13 0)
(580 3.4749e-13 0)
(580 3.05957e-13 0)
(580 5.64689e-13 0)
(580 4.7012e-13 0)
(580 2.77808e-13 0)
(580 7.20197e-14 0)
(580 -8.25872e-13 0)
(580 -1.22067e-12 0)
(580 -1.16634e-12 0)
(580 -9.63772e-13 0)
(580 -1.10675e-12 0)
(580 -1.3636e-12 0)
(580 -1.21364e-12 0)
(580 -1.21559e-12 0)
(580 -1.1255e-12 0)
(580 -1.17519e-12 0)
(580 -1.11413e-12 0)
(580 -1.07206e-12 0)
(580 -1.06511e-12 0)
(580 -1.02398e-12 0)
(580 -9.59436e-13 0)
(580 -1.17639e-12 0)
(580 -1.60653e-12 0)
(580 -1.70046e-12 0)
(580 -1.49803e-12 0)
(580 -1.31253e-12 0)
(580 -1.15667e-12 0)
(580 -1.00744e-12 0)
(580 -9.23739e-13 0)
(580 -9.4909e-13 0)
(580 -1.37757e-12 0)
(580 -1.5284e-12 0)
(580 -1.77955e-12 0)
(580 -1.63067e-12 0)
(580 -1.49077e-12 0)
(580 -1.42834e-12 0)
(580 -1.11049e-12 0)
(580 -8.25787e-13 0)
(580 -7.5458e-13 0)
(580 -7.05825e-13 0)
(580 -8.16493e-13 0)
(580 -9.355e-13 0)
(580 -9.00709e-13 0)
(580 1.07295e-13 0)
(580 9.23547e-14 0)
(580 -1.19122e-13 0)
(580 -3.23703e-13 0)
(580 -4.98383e-13 0)
(580 -3.80836e-13 0)
(580 -4.39861e-14 0)
(580 8.44461e-14 0)
(580 -2.22834e-14 0)
(580 7.11447e-14 0)
(580 5.93179e-14 0)
(580 6.24406e-14 0)
(580 3.77877e-14 0)
(580 -1.50473e-13 0)
(580 -3.0982e-13 0)
(580 -4.53204e-13 0)
(580 -2.86679e-13 0)
(580 -1.26696e-13 0)
(580 8.37332e-15 0)
(580 5.09506e-14 0)
(580 2.82508e-13 0)
(580 4.81713e-13 0)
(580 7.03701e-13 0)
(580 9.18112e-13 0)
(580 1.09647e-12 0)
(580 1.32484e-12 0)
(580 1.5699e-12 0)
(580 1.6624e-12 0)
(580 1.62274e-12 0)
(580 1.29762e-12 0)
(580 1.36099e-12 0)
(580 1.39887e-12 0)
(580 1.31893e-12 0)
(580 1.20678e-12 0)
(580 1.12765e-12 0)
(580 1.45254e-12 0)
(580 1.37927e-12 0)
(580 1.03483e-12 0)
(580 5.27833e-13 0)
(580 3.71185e-13 0)
(580 1.82019e-13 0)
(580 2.95541e-13 0)
(580 -4.00869e-13 0)
(580 -6.98514e-13 0)
(580 -1.2138e-12 0)
(580 -1.32694e-12 0)
(580 -1.12247e-12 0)
(580 -1.08248e-12 0)
(580 -1.07242e-12 0)
(580 -1.16379e-12 0)
(580 -1.2565e-12 0)
(580 -1.05184e-12 0)
(580 -8.67158e-13 0)
(580 -5.44741e-13 0)
(580 -4.91346e-13 0)
(580 -6.64782e-13 0)
(580 -9.52688e-13 0)
(580 -1.27864e-12 0)
(580 -1.94977e-12 0)
(580 -2.50611e-12 0)
(580 -2.43503e-12 0)
(580 -2.15615e-12 0)
(580 -1.84188e-12 0)
(580 -1.45527e-12 0)
(580 -1.3966e-12 0)
(580 -1.57427e-12 0)
(580 -1.52363e-12 0)
(580 -1.43683e-12 0)
(580 -1.18837e-12 0)
(580 -1.07854e-12 0)
(580 -1.0825e-12 0)
(580 -7.36275e-13 0)
(580 -7.62443e-13 0)
(580 -5.91076e-13 0)
(580 -4.62376e-13 0)
(580 -2.95052e-13 0)
(580 -2.74008e-13 0)