/*--------------------------------*- C++ -*----------------------------------*\
| =========                 |                                                 |
| \\      /  F ield         | OpenFOAM: The Open Source CFD Toolbox           |
|  \\    /   O peration     | Version:  2306                                  |
|   \\  /    A nd           | Website:  www.openfoam.com                      |
|    \\/     M anipulation  |                                                 |
\*---------------------------------------------------------------------------*/
FoamFile
{
    version     2.0;
    format      ascii;
    arch        "LSB;label=32;scalar=64";
    class       volScalarField;
    location    "7e-05";
    object      p;
}
// * * * * * * * * * * * * * * * * * * * * * * * * * * * * * * * * * * * * * //

dimensions      [1 -1 -2 0 0 0 0];

internalField   nonuniform List<scalar> 
9032
(
109563
109457
109383
109387
109441
109539
109635
109708
109747
109748
109721
109675
109627
109590
109567
109554
109548
109549
109554
109560
109558
109548
109531
109513
109495
109494
109527
109566
109612
109652
109658
109638
109594
109550
109527
109512
109512
109529
109578
109697
109918
110314
110917
111669
112273
112546
112638
112664
112648
112609
112576
112560
112559
112570
112577
112582
112571
112535
112485
112411
112311
112190
112074
111981
111897
111818
111750
111726
109545
109432
109404
109446
109528
109620
109681
109705
109698
109672
109644
109620
109596
109570
109543
109523
109511
109505
109503
109504
109511
109531
109556
109575
109586
109603
109632
109656
109665
109654
109626
109585
109547
109522
109506
109500
109523
109567
109639
109774
110024
110482
111196
111997
112537
112721
112735
112710
112667
112619
112591
112584
112590
112602
112608
112608
112586
112542
112472
112386
112285
112173
112072
111990
111910
111840
111768
111717
109481
109479
109496
109535
109586
109633
109668
109679
109669
109637
109595
109559
109535
109517
109506
109499
109492
109488
109484
109484
109490
109504
109533
109578
109636
109688
109720
109731
109720
109684
109628
109563
109512
109490
109475
109477
109516
109585
109689
109853
110142
110679
111458
112219
112629
112733
112726
112697
112659
112625
112614
112616
112629
112640
112641
112632
112598
112544
112472
112387
112289
112183
112090
112005
111918
111832
111748
111689
109540
109553
109561
109581
109590
109602
109624
109643
109651
109634
109600
109560
109527
109500
109488
109497
109512
109521
109521
109520
109524
109538
109563
109607
109662
109707
109724
109718
109697
109667
109629
109583
109534
109506
109490
109493
109530
109590
109694
109885
110259
110899
111714
112403
112706
112750
112738
112711
112679
112655
112654
112667
112685
112690
112686
112669
112627
112570
112497
112407
112302
112190
112091
112001
111913
111822
111728
111650
109467
109521
109560
109583
109570
109561
109578
109605
109633
109633
109598
109553
109516
109490
109487
109509
109533
109546
109548
109550
109557
109569
109589
109620
109654
109683
109703
109710
109710
109694
109659
109609
109547
109504
109483
109488
109526
109600
109722
109949
110408
111140
111951
112549
112741
112751
112735
112720
112702
112694
112705
112724
112733
112733
112717
112687
112639
112577
112499
112404
112292
112175
112073
111981
111894
111799
111703
111608
109425
109480
109620
109680
109651
109580
109557
109579
109627
109673
109672
109635
109586
109545
109523
109517
109523
109524
109526
109541
109561
109577
109589
109600
109615
109637
109662
109684
109696
109688
109661
109613
109544
109489
109465
109473
109513
109595
109745
110057
110625
111407
112153
112621
112745
112743
112736
112735
112729
112730
112745
112754
112752
112743
112717
112672
112615
112546
112462
112364
112252
112133
112033
111943
111856
111760
111663
111563
109437
109474
109622
109689
109677
109600
109524
109529
109570
109649
109697
109700
109683
109659
109625
109585
109548
109532
109540
109571
109614
109646
109655
109646
109619
109604
109614
109634
109644
109635
109618
109594
109550
109502
109483
109500
109551
109648
109836
110205
110836
111636
112300
112642
112721
112730
112741
112746
112746
112745
112750
112742
112726
112703
112671
112620
112557
112484
112402
112308
112204
112094
112000
111915
111831
111751
111657
111556
109391
109363
109600
109695
109690
109619
109538
109522
109541
109577
109608
109618
109633
109656
109650
109624
109574
109521
109508
109531
109580
109632
109655
109655
109630
109600
109592
109597
109601
109590
109576
109566
109548
109526
109522
109550
109606
109711
109929
110359
111049
111831
112390
112629
112699
112745
112770
112777
112769
112745
112725
112702
112676
112641
112602
112548
112484
112414
112337
112251
112157
112054
111963
111882
111800
111722
111628
111529
109195
109365
109669
109742
109681
109581
109531
109524
109549
109555
109538
109522
109532
109583
109616
109608
109583
109535
109505
109518
109555
109605
109637
109640
109617
109581
109569
109572
109584
109585
109578
109565
109548
109535
109547
109591
109660
109787
110056
110565
111303
112016
112458
112641
112717
112774
112800
112808
112793
112754
112705
112663
112621
112572
112525
112476
112419
112355
112288
112212
112125
112031
111938
111855
111772
111691
111590
111494
109286
109835
109890
109671
109513
109444
109505
109587
109632
109603
109523
109467
109454
109492
109560
109593
109594
109561
109519
109519
109544
109589
109625
109633
109615
109573
109551
109549
109562
109574
109574
109562
109550
109551
109579
109636
109732
109884
110206
110783
111538
112172
112522
112676
112757
112810
112839
112844
112813
112756
112687
112625
112570
112516
112466
112421
112371
112313
112252
112184
112110
112030
111943
111854
111768
111677
111566
111469
109726
110261
109993
109541
109384
109414
109513
109669
109753
109729
109606
109468
109431
109443
109527
109614
109628
109602
109547
109522
109524
109555
109587
109592
109570
109530
109514
109520
109538
109556
109559
109553
109558
109572
109600
109668
109788
109986
110378
111025
111772
112319
112604
112739
112813
112853
112870
112856
112808
112741
112671
112606
112545
112490
112439
112392
112342
112289
112230
112168
112101
112029
111948
111856
111768
111671
111553
111458
109575
110539
109819
109482
109315
109355
109476
109715
109816
109787
109662
109524
109476
109478
109549
109606
109620
109600
109544
109521
109517
109527
109534
109530
109516
109497
109506
109535
109571
109594
109599
109587
109589
109602
109632
109708
109848
110091
110553
111254
111964
112426
112650
112758
112822
112857
112866
112842
112792
112730
112666
112605
112544
112486
112434
112383
112334
112287
112234
112177
112112
112041
111962
111870
111773
111663
111536
111431
98977.3
109362
109578
109722
109290
109111
109260
109655
109764
109747
109650
109558
109549
109564
109610
109630
109633
109596
109545
109526
109516
109527
109521
109509
109485
109486
109520
109584
109647
109678
109682
109647
109607
109607
109633
109713
109882
110185
110724
111456
112129
112495
112666
112764
112837
112870
112879
112852
112803
112740
112672
112607
112544
112487
112435
112383
112340
112296
112252
112200
112130
112055
111970
111871
111762
111642
111509
111399
58555
98326.4
110037
110703
108949
108884
109172
109645
109709
109644
109568
109576
109594
109663
109710
109719
109682
109602
109550
109530
109531
109539
109522
109509
109485
109501
109551
109628
109709
109746
109753
109712
109633
109601
109614
109684
109876
110264
110876
111632
112218
112507
112653
112750
112846
112896
112905
112879
112828
112757
112679
112606
112540
112482
112433
112388
112349
112308
112258
112196
112120
112039
111949
111846
111736
111611
111473
111364
33708
56989.8
98084.5
108225
108386
108920
109684
109925
109745
109556
109505
109560
109616
109725
109792
109793
109735
109616
109550
109530
109537
109554
109538
109523
109503
109510
109552
109636
109734
109781
109792
109766
109677
109598
109599
109670
109889
110363
111059
111829
112328
112557
112669
112747
112819
112872
112886
112861
112812
112737
112650
112577
112519
112469
112420
112385
112354
112306
112247
112178
112096
112008
111912
111805
111692
111569
111434
111332
32007.1
33359.9
56841.7
97947.9
108804
109614
110294
109953
109534
109429
109457
109512
109588
109742
109824
109807
109736
109616
109556
109544
109556
109574
109555
109538
109517
109500
109524
109592
109700
109782
109801
109785
109725
109627
109605
109690
109945
110502
111287
112046
112460
112635
112710
112759
112798
112829
112848
112831
112787
112720
112638
112565
112503
112450
112408
112374
112333
112267
112199
112129
112041
111949
111849
111741
111629
111515
111391
111301
32000
32005.2
33441.8
56113.2
95024.2
108352
110706
109234
108920
109331
109446
109431
109508
109669
109780
109763
109703
109608
109538
109521
109530
109552
109545
109529
109505
109483
109493
109533
109606
109701
109763
109770
109740
109680
109650
109740
110047
110683
111540
112267
112594
112715
112759
112780
112790
112802
112804
112794
112761
112707
112638
112570
112509
112459
112416
112372
112315
112231
112139
112051
111958
111862
111762
111659
111557
111451
111335
111268
32000
32000
32005.7
33230.5
53968.2
96087.3
109434
108202
109084
109580
109500
109371
109536
109678
109716
109670
109627
109580
109511
109468
109457
109463
109473
109481
109480
109480
109488
109505
109543
109599
109670
109720
109722
109711
109715
109819
110189
110902
111799
112454
112705
112783
112805
112798
112783
112777
112773
112762
112746
112711
112655
112593
112532
112473
112417
112360
112291
112194
112080
111974
111877
111778
111682
111591
111503
111407
111292
111229
32000
32000
32000
32004.4
32997.8
52444.7
93833.6
107216
110447
110298
109654
109550
109886
109869
109709
109579
109555
109543
109504
109448
109411
109391
109384
109405
109453
109485
109510
109517
109524
109552
109587
109645
109693
109718
109767
109917
110369
111153
112028
112580
112760
112816
112836
112824
112791
112770
112766
112756
112745
112724
112687
112631
112568
112499
112427
112354
112268
112158
112031
111918
111817
111721
111634
111553
111474
111385
111275
111201
32000
32000
32000
32000
32002.9
32845.7
50098
90278.2
109953
110261
109040
109859
110354
109918
109632
109491
109494
109512
109495
109445
109395
109357
109340
109363
109446
109517
109555
109558
109533
109536
109546
109579
109652
109723
109813
110039
110593
111438
112218
112631
112774
112816
112841
112841
112809
112778
112774
112769
112759
112745
112720
112670
112603
112528
112444
112352
112250
112132
111999
111886
111785
111696
111615
111539
111464
111381
111280
111185
32000
32000
32000
32000
32000
32002.4
32575.8
48420.7
90721.1
106581
108024
110782
110427
109521
109418
109444
109513
109500
109499
109506
109466
109401
109362
109390
109484
109583
109626
109625
109560
109515
109515
109531
109606
109730
109876
110203
110875
111748
112373
112630
112740
112780
112811
112832
112823
112794
112777
112779
112774
112762
112739
112693
112622
112540
112447
112347
112237
112114
111985
111874
111776
111690
111619
111547
111476
111396
111297
111176
32000
32000
32000
32000
32000
32000
32001.4
32513.1
46367.5
85992.8
107289
111875
109926
108636
109288
109508
109503
109524
109547
109579
109590
109569
109524
109519
109578
109663
109695
109676
109607
109512
109472
109489
109562
109729
109965
110417
111215
112054
112482
112622
112687
112724
112758
112790
112806
112800
112776
112784
112778
112762
112738
112696
112625
112535
112434
112324
112208
112085
111973
111882
111798
111720
111655
111584
111509
111422
111317
111171
32000
32000
32000
32000
32000
32000
32000
32001.2
32332.7
44007.4
82863.7
109105
107688
109037
109808
109699
109568
109496
109490
109546
109630
109658
109657
109664
109682
109706
109708
109674
109615
109520
109441
109457
109535
109720
110060
110658
111554
112298
112547
112609
112642
112678
112723
112762
112782
112788
112781
112783
112770
112750
112724
112674
112593
112492
112375
112253
112140
112037
111953
111877
111812
111753
111687
111610
111531
111436
111324
111170
32000
32000
32000
32000
32000
32000
32000
32000
32000.6
32235.6
41461.8
79997.3
103209
111430
110691
109729
109549
109321
109314
109463
109636
109710
109720
109715
109704
109694
109674
109636
109602
109542
109463
109460
109549
109753
110173
110909
111843
112437
112581
112592
112616
112649
112697
112743
112772
112788
112791
112785
112760
112733
112703
112632
112535
112423
112297
112167
112062
111976
111908
111855
111813
111763
111690
111609
111523
111421
111301
111150
32000
32000
32000
32000
32000
32000
32000
32000
32000
32000.3
32146.1
39493.8
72723.8
106363
109533
109122
109369
109209
109222
109411
109592
109668
109701
109690
109668
109626
109610
109620
109606
109583
109527
109517
109620
109852
110351
111184
112091
112501
112579
112590
112602
112640
112701
112756
112794
112813
112817
112802
112767
112733
112680
112587
112482
112369
112242
112111
112011
111931
111862
111811
111784
111746
111671
111584
111491
111381
111251
111100
32000
32000
32000
32000
32000
32000
32000
32000
32000
32000
32000.2
32084
37314
69502.1
102032
108921
109747
109266
109360
109587
109588
109602
109639
109624
109603
109560
109572
109617
109626
109614
109569
109582
109722
110017
110598
111478
112290
112538
112586
112604
112615
112658
112722
112777
112818
112840
112850
112833
112791
112737
112664
112561
112449
112333
112213
112090
111990
111909
111834
111767
111722
111686
111611
111520
111423
111309
111176
111034
32000
32000
32000
32000
32000
32000
32000
32000
32000
32000
32000
32000.1
32048.7
35693.9
64031.3
99795
110062
109509
109725
109762
109661
109670
109627
109558
109534
109506
109541
109571
109571
109573
109558
109623
109800
110163
110840
111736
112376
112539
112590
112631
112669
112712
112764
112808
112841
112869
112883
112864
112819
112750
112659
112553
112439
112328
112217
112098
111989
111902
111819
111734
111654
111587
111503
111411
111316
111212
111088
110968
32000
32000
32000
32000
32000
32000
32000
32000
32000
32000
32000
32000
32000
32024.7
34604
57792
97833.7
106894
109093
109625
109729
109831
109613
109441
109411
109451
109520
109511
109501
109473
109468
109587
109814
110261
111010
111839
112350
112507
112591
112667
112728
112763
112787
112811
112833
112854
112891
112886
112837
112761
112661
112553
112447
112344
112244
112136
112018
111906
111806
111706
111603
111506
111404
111308
111212
111120
111008
110906
32000
32000
32000
32000
32000
32000
32000
32000
32000
32000
32000
32000
32000
32000
32014.1
33383.5
54076.5
91036.3
109544
110180
110185
109858
109427
109325
109324
109425
109545
109554
109541
109476
109469
109598
109857
110363
111158
111921
112307
112465
112581
112702
112778
112814
112825
112812
112810
112811
112825
112832
112791
112723
112648
112555
112458
112369
112277
112177
112064
111938
111808
111684
111566
111453
111345
111245
111147
111061
110958
110851
32000
32000
32000
32000
32000
32000
32000
32000
32000
32000
32000
32000
32000
32000
32000
32005.2
32921.4
47552.6
88416
106190
109373
109551
109254
109371
109432
109480
109619
109718
109750
109700
109659
109736
109974
110512
111337
112043
112347
112478
112593
112730
112819
112852
112852
112830
112808
112791
112774
112753
112708
112647
112582
112525
112457
112375
112286
112189
112081
111961
111824
111681
111548
111428
111319
111219
111121
111035
110927
110808
32000
32000
32000
32000
32000
32000
32000
32000
32000
32000
32000
32000
32000
32000
32000
32000
32002.7
32401.3
43993.6
79706.7
107427
110139
109749
109685
109530
109542
109641
109769
109822
109822
109837
109913
110130
110675
111523
112185
112454
112572
112666
112782
112871
112893
112888
112856
112818
112789
112756
112715
112655
112589
112519
112469
112427
112357
112272
112176
112071
111957
111830
111693
111557
111433
111321
111214
111110
111020
110910
110783
32000
32000
32000
32000
32000
32000
32000
32000
32000
32000
32000
32000
32000
32000
32000
32000
32000
32000.7
32218.6
39751.4
74832.7
101627
109198
109925
109431
109351
109544
109715
109774
109795
109830
109959
110223
110834
111728
112389
112645
112746
112816
112871
112910
112918
112908
112887
112854
112814
112764
112705
112645
112576
112497
112432
112386
112316
112232
112143
112046
111939
111822
111697
111574
111450
111332
111217
111104
110998
110884
110760
32000
32000
32000
32000
32000
32000
32000
32000
32000
32000
32000
32000
32000
32000
32000
32000
32000
32000
32000.3
32095.3
37057.6
65278.4
101103
109364
108966
109476
109576
109455
109516
109585
109749
109955
110293
110993
111913
112508
112745
112848
112895
112921
112919
112915
112906
112890
112874
112849
112809
112748
112677
112593
112502
112435
112377
112298
112205
112100
111985
111878
111786
111688
111578
111461
111341
111216
111091
110968
110846
110724
32000
32000
32000
32000
32000
32000
32000
32000
32000
32000
32000
32000
32000
32000
32000
32000
32000
32000
32000
32000.1
32039.7
34847.5
57775.5
95741.4
108025
110457
109935
109310
109369
109434
109680
109962
110402
111193
112068
112525
112730
112842
112859
112849
112831
112825
112828
112842
112865
112869
112843
112794
112729
112646
112557
112474
112391
112302
112204
112093
111965
111828
111722
111640
111567
111463
111341
111208
111072
110931
110795
110671
32000
32000
32000
32000
32000
32000
32000
32000
32000
32000
32000
32000
32000
32000
32000
32000
32000
32000
32000
32000
32000
32016.2
33289
51576.5
87969.6
109329
109717
109492
109340
109408
109752
110023
110589
111486
112248
112581
112720
112808
112816
112782
112739
112734
112750
112779
112813
112840
112846
112816
112753
112671
112587
112503
112414
112323
112223
112111
111975
111822
111689
111593
111525
111450
111333
111197
111055
110906
110755
110619
32000
32000
32000
32000
32000
32000
32000
32000
32000
32000
32000
32000
32000
32000
32000
32000
32000
32000
32000
32000
32000
32000
32004.4
32686.7
44376.9
82359.2
104175
109999
109783
109524
109866
110184
110879
111837
112400
112642
112751
112820
112830
112803
112762
112749
112772
112805
112834
112836
112826
112802
112747
112675
112599
112515
112428
112343
112256
112159
112035
111869
111695
111560
111461
111383
111294
111173
111048
110914
110761
110613
32000
32000
32000
32000
32000
32000
32000
32000
32000
32000
32000
32000
32000
32000
32000
32000
32000
32000
32000
32000
32000
32000
32000
32001.6
32243.1
40000.2
71448.5
103733
109176
109357
110002
110497
111166
112026
112503
112736
112884
112961
112983
112969
112920
112881
112889
112929
112929
112893
112842
112770
112689
112619
112542
112464
112392
112333
112279
112201
112092
111939
111748
111557
111411
111310
111230
111142
111033
110922
110788
110638
32000
32000
32000
32000
32000
32000
32000
32000
32000
32000
32000
32000
32000
32000
32000
32000
32000
32000
32000
32000
32000
32000
32000
32000
32000.3
32094.2
36441.6
62876.3
96732.2
108968
110614
110604
111272
112001
112538
112780
112947
113060
113126
113166
113154
113099
113078
113098
113074
113022
112929
112790
112657
112565
112486
112408
112332
112261
112203
112150
112063
111942
111779
111578
111386
111254
111158
111069
110970
110867
110751
110611
32000
32000
32000
32000
32000
32000
32000
32000
32000
32000
32000
32000
32000
32000
32000
32000
32000
32000
32000
32000
32000
32000
32000
32000
32000
32000.1
32033.8
34039.5
53634.8
92280
106505
109534
111533
112332
112480
112561
112671
112885
113122
113251
113306
113241
113180
113168
113139
113086
113001
112861
112695
112589
112516
112440
112349
112236
112133
112050
111968
111867
111743
111585
111396
111223
111105
111006
110906
110805
110693
110559
32000
32000
32000
32000
32000
32000
32000
32000
32000
32000
32000
32000
32000
32000
32000
32000
32000
32000
32000
32000
32000
32000
32000
32000
32000
32000
32000
32009
32884.7
46273.6
80041.8
108332
113038
113095
112459
112361
112440
112807
113152
113283
113303
113197
113079
113041
113021
112988
112930
112831
112698
112610
112549
112479
112380
112229
112059
111940
111854
111774
111676
111555
111400
111221
111071
110965
110863
110765
110651
110519
32000
32000
32000
32000
32000
32000
32000
32000
32000
32000
32000
32000
32000
32000
32000
32000
32000
32000
32000
32000
32000
32000
32000
32000
32000
32000
32000
32000
32002.4
32296.1
39851.6
73238.1
105574
111503
112274
112450
112744
113172
113426
113420
113311
113073
112929
112889
112890
112878
112833
112739
112621
112569
112531
112470
112374
112220
112014
111845
111744
111671
111597
111503
111380
111218
111049
110929
110820
110721
110605
110479
32000
32000
32000
32000
32000
32000
32000
32000
32000
32000
32000
32000
32000
32000
32000
32000
32000
32000
32000
32000
32000
32000
32000
32000
32000
32000
32000
32000
32000
32000.4
32099.8
36434.6
64198.7
100086
113490
113780
113475
113551
113466
113437
113263
112935
112847
112846
112936
112947
112888
112755
112591
112524
112488
112429
112340
112206
112016
111820
111703
111628
111558
111471
111352
111200
111038
110905
110786
110682
110565
110440
32000
32000
32000
32000
32000
32000
32000
32000
32000
32000
32000
32000
32000
32000
32000
32000
32000
32000
32000
32000
32000
32000
32000
32000
32000
32000
32000
32000
32000
32000
32000.1
32031.9
34293.1
54326.1
97722.8
109903
112278
112867
113065
113153
113020
112838
112784
112877
113053
113052
112958
112772
112567
112467
112410
112367
112292
112184
112031
111841
111695
111602
111518
111426
111315
111186
111042
110904
110772
110653
110530
110397
32000
32000
32000
32000
32000
32000
32000
32000
32000
32000
32000
32000
32000
32000
32000
32000
32000
32000
32000
32000
32000
32000
32000
32000
32000
32000
32000
32000
32000
32000
32000
32000
32010.6
32868
49517.1
87771.5
112402
114080
113994
113522
112881
112770
112795
112957
113087
113036
112906
112692
112508
112411
112341
112314
112257
112160
112028
111853
111695
111590
111497
111404
111297
111178
111044
110907
110767
110632
110495
110345
32000
32000
32000
32000
32000
32000
32000
32000
32000
32000
32000
32000
32000
32000
32000
32000
32000
32000
32000
32000
32000
32000
32000
32000
32000
32000
32000
32000
32000
32000
32000
32000
32000
32002.5
32459.5
43021.1
81556.4
107741
113719
113959
113355
113251
113151
113152
113133
113031
112862
112644
112493
112399
112334
112293
112233
112137
112011
111853
111706
111591
111479
111372
111260
111150
111034
110912
110781
110635
110471
110294
32000
32000
32000
32000
32000
32000
32000
32000
32000
32000
32000
32000
32000
32000
32000
32000
32000
32000
32000
32000
32000
32000
32000
32000
32000
32000
32000
32000
32000
32000
32000
32000
32000
32000
32000.9
32176.9
38747.4
71768
104751
113637
113850
113612
113277
113154
113143
113012
112865
112664
112557
112482
112399
112321
112219
112107
111979
111841
111711
111579
111447
111316
111189
111077
110983
110874
110746
110602
110436
110250
32000
32000
32000
32000
32000
32000
32000
32000
32000
32000
32000
32000
32000
32000
32000
32000
32000
32000
32000
32000
32000
32000
32000
32000
32000
32000
32000
32000
32000
32000
32000
32000
32000
32000
32000
32000.2
32064.5
35880.8
60745.9
102429
112006
113184
112927
113157
113169
113032
112809
112678
112630
112595
112498
112354
112191
112060
111948
111841
111722
111584
111432
111269
111125
111009
110915
110814
110689
110554
110404
110226
32000
32000
32000
32000
32000
32000
32000
32000
32000
32000
32000
32000
32000
32000
32000
32000
32000
32000
32000
32000
32000
32000
32000
32000
32000
32000
32000
32000
32000
32000
32000
32000
32000
32000
32000
32000
32000.1
32025.3
33663.5
54058.1
94822.7
111040
113669
113644
113268
112889
112657
112580
112592
112587
112500
112362
112176
112004
111880
111777
111685
111561
111423
111267
111106
110973
110864
110760
110641
110508
110363
110197
32000
32000
32000
32000
32000
32000
32000
32000
32000
32000
32000
32000
32000
32000
32000
32000
32000
32000
32000
32000
32000
32000
32000
32000
32000
32000
32000
32000
32000
32000
32000
32000
32000
32000
32000
32000
32000
32000
32006.8
32784.3
47062.1
83399
111348
113209
112877
112595
112590
112581
112575
112588
112493
112331
112118
111919
111787
111684
111604
111502
111370
111231
111095
110979
110865
110742
110613
110477
110333
110176
32000
32000
32000
32000
32000
32000
32000
32000
32000
32000
32000
32000
32000
32000
32000
32000
32000
32000
32000
32000
32000
32000
32000
32000
32000
32000
32000
32000
32000
32000
32000
32000
32000
32000
32000
32000
32000
32000
32000
32002
32319.6
39988.2
76299
104761
112827
113229
113166
112808
112659
112609
112491
112296
112113
111915
111758
111642
111542
111422
111291
111162
111054
110962
110860
110735
110604
110463
110316
110161
32000
32000
32000
32000
32000
32000
32000
32000
32000
32000
32000
32000
32000
32000
32000
32000
32000
32000
32000
32000
32000
32000
32000
32000
32000
32000
32000
32000
32000
32000
32000
32000
32000
32000
32000
32000
32000
32000
32000
32000
32000.5
32093.5
36834.3
63009.8
100606
112782
112940
112711
112565
112470
112386
112270
112137
112003
111863
111729
111563
111392
111232
111109
111011
110929
110848
110730
110599
110457
110305
110142
32000
32000
32000
32000
32000
32000
32000
32000
32000
32000
32000
32000
32000
32000
32000
32000
32000
32000
32000
32000
32000
32000
32000
32000
32000
32000
32000
32000
32000
32000
32000
32000
32000
32000
32000
32000
32000
32000
32000
32000
32000
32000.1
32036.3
33996.6
52856.9
94342.3
110238
112932
112824
112401
112173
112167
112117
112022
111893
111742
111578
111416
111245
111090
110981
110890
110819
110715
110588
110451
110301
110125
32000
32000
32000
32000
32000
32000
32000
32000
32000
32000
32000
32000
32000
32000
32000
32000
32000
32000
32000
32000
32000
32000
32000
32000
32000
32000
32000
32000
32000
32000
32000
32000
32000
32000
32000
32000
32000
32000
32000
32000
32000
32000
32000
32008.5
32709.9
46184.7
80827.4
109776
112717
111961
111931
111980
111995
111900
111715
111593
111487
111375
111261
111115
110968
110850
110765
110676
110560
110433
110293
110113
32000
32000
32000
32000
32000
32000
32000
32000
32000
32000
32000
32000
32000
32000
32000
32000
32000
32000
32000
32000
32000
32000
32000
32000
32000
32000
32000
32000
32000
32000
32000
32000
32000
32000
32000
32000
32000
32000
32000
32000
32000
32000
32000
32000
32001.8
32281.8
38848.7
69944.6
102152
111644
113162
112742
112185
111724
111499
111429
111410
111331
111237
111109
110928
110787
110691
110609
110504
110387
110258
110083
32000
32000
32000
32000
32000
32000
32000
32000
32000
32000
32000
32000
32000
32000
32000
32000
32000
32000
32000
32000
32000
32000
32000
32000
32000
32000
32000
32000
32000
32000
32000
32000
32000
32000
32000
32000
32000
32000
32000
32000
32000
32000
32000
32000
32000
32000.4
32068.4
35100
57382.5
93119.8
111498
112603
111947
111519
111543
111605
111540
111427
111274
111096
110911
110762
110650
110546
110430
110308
110178
110019
32000
32000
32000
32000
32000
32000
32000
32000
32000
32000
32000
32000
32000
32000
32000
32000
32000
32000
32000
32000
32000
32000
32000
32000
32000
32000
32000
32000
32000
32000
32000
32000
32000
32000
32000
32000
32000
32000
32000
32000
32000
32000
32000
32000
32000
32000
32000.1
32017.8
33133.4
46020.5
84566.4
106517
111403
112082
112031
111985
111778
111551
111315
111117
110960
110807
110661
110508
110368
110231
110101
109955
32000
32000
32000
32000
32000
32000
32000
32000
32000
32000
32000
32000
32000
32000
32000
32000
32000
32000
32000
32000
32000
32000
32000
32000
32000
32000
32000
32000
32000
32000
32000
32000
32000
32000
32000
32000
32000
32000
32000
32000
32000
32000
32000
32000
32000
32000
32000
32000
32003.3
32292.4
39921
69470.2
100912
111739
112340
111821
111362
111107
111008
110937
110892
110802
110664
110501
110351
110205
110076
109939
32000
32000
32000
32000
32000
32000
32000
32000
32000
32000
32000
32000
32000
32000
32000
32000
32000
32000
32000
32000
32000
32000
32000
32000
32000
32000
32000
32000
32000
32000
32000
32000
32000
32000
32000
32000
32000
32000
32000
32000
32000
32000
32000
32000
32000
32000
32000
32000
32000
32000.5
32087.7
35226
54464.2
94297.1
109022
111156
110955
110564
110674
110756
110807
110760
110605
110442
110300
110170
110059
109929
32000
32000
32000
32000
32000
32000
32000
32000
32000
32000
32000
32000
32000
32000
32000
32000
32000
32000
32000
32000
32000
32000
32000
32000
32000
32000
32000
32000
32000
32000
32000
32000
32000
32000
32000
32000
32000
32000
32000
32000
32000
32000
32000
32000
32000
32000
32000
32000
32000
32000
32000.1
32018
32843.6
45861
77522.1
106315
111717
110907
111010
111047
110894
110745
110564
110369
110224
110096
109999
109884
32000
32000
32000
32000
32000
32000
32000
32000
32000
32000
32000
32000
32000
32000
32000
32000
32000
32000
32000
32000
32000
32000
32000
32000
32000
32000
32000
32000
32000
32000
32000
32000
32000
32000
32000
32000
32000
32000
32000
32000
32000
32000
32000
32000
32000
32000
32000
32000
32000
32000
32000
32000
32002.2
32266.1
37623.7
63740.4
95997.6
109301
111928
111832
111040
110827
110565
110300
110138
110008
109926
109820
32000
32000
32000
32000
32000
32000
32000
32000
32000
32000
32000
32000
32000
32000
32000
32000
32000
32000
32000
32000
32000
32000
32000
32000
32000
32000
32000
32000
32000
32000
32000
32000
32000
32000
32000
32000
32000
32000
32000
32000
32000
32000
32000
32000
32000
32000
32000
32000
32000
32000
32000
32000
32000
32000.4
32047.9
33899.6
49620.3
83903
107021
109677
109922
110454
110611
110376
110145
110005
109898
109784
32000
32000
32000
32000
32000
32000
32000
32000
32000
32000
32000
32000
32000
32000
32000
32000
32000
32000
32000
32000
32000
32000
32000
32000
32000
32000
32000
32000
32000
32000
32000
32000
32000
32000
32000
32000
32000
32000
32000
32000
32000
32000
32000
32000
32000
32000
32000
32000
32000
32000
32000
32000
32000
32000
32000
32007.6
32480.6
39858
68776.6
97150.2
110304
111706
111564
110645
110122
109905
109791
109688
32000
32000
32000
32000
32000
32000
32000
32000
32000
32000
32000
32000
32000
32000
32000
32000
32000
32000
32000
32000
32000
32000
32000
32000
32000
32000
32000
32000
32000
32000
32000
32000
32000
32000
32000
32000
32000
32000
32000
32000
32000
32000
32000
32000
32000
32000
32000
32000
32000
32000
32000
32000
32000
32000
32000
32000
32000.9
32087.9
34955
51869.6
87976.2
105624
109740
109684
109685
109559
109550
109576
32000
32000
32000
32000
32000
32000
32000
32000
32000
32000
32000
32000
32000
32000
32000
32000
32000
32000
32000
32000
32000
32000
32000
32000
32000
32000
32000
32000
32000
32000
32000
32000
32000
32000
32000
32000
32000