/*--------------------------------*- C++ -*----------------------------------*\
| =========                 |                                                 |
| \\      /  F ield         | OpenFOAM: The Open Source CFD Toolbox           |
|  \\    /   O peration     | Version:  2306                                  |
|   \\  /    A nd           | Website:  www.openfoam.com                      |
|    \\/     M anipulation  |                                                 |
\*---------------------------------------------------------------------------*/
FoamFile
{
    version     2.0;
    format      ascii;
    arch        "LSB;label=32;scalar=64";
    class       volScalarField;
    location    "7e-05";
    object      rho;
}
// * * * * * * * * * * * * * * * * * * * * * * * * * * * * * * * * * * * * * //

dimensions      [1 -3 0 0 0 0 0];

internalField   nonuniform List<scalar> 
9032
(
1.41945
1.41814
1.41711
1.41696
1.41721
1.41783
1.41845
1.41887
1.419
1.41888
1.41845
1.41783
1.4172
1.4167
1.41636
1.41613
1.41595
1.41582
1.41571
1.41563
1.41552
1.41532
1.41506
1.41482
1.41458
1.41449
1.41469
1.41495
1.41529
1.41556
1.41555
1.41529
1.41478
1.41432
1.41408
1.4139
1.41389
1.41403
1.41446
1.41552
1.41753
1.42118
1.42673
1.43362
1.43919
1.44165
1.4425
1.44265
1.44247
1.44208
1.44173
1.44155
1.44153
1.44162
1.44166
1.44164
1.44152
1.44115
1.44067
1.43998
1.43907
1.43797
1.43694
1.4361
1.43534
1.43461
1.43399
1.43375
1.4174
1.41612
1.41565
1.4159
1.41649
1.41715
1.41754
1.41756
1.41738
1.41705
1.41667
1.41631
1.41597
1.41561
1.41528
1.41503
1.41484
1.41469
1.41456
1.41448
1.41447
1.41459
1.41477
1.41489
1.41493
1.41501
1.4152
1.41538
1.41539
1.41525
1.41493
1.41448
1.41406
1.4138
1.41362
1.41356
1.41376
1.41416
1.4148
1.41605
1.41834
1.42255
1.4291
1.43646
1.44132
1.44296
1.44312
1.44288
1.44247
1.44203
1.44173
1.44163
1.44168
1.44178
1.44182
1.44177
1.44155
1.44112
1.44046
1.43967
1.43876
1.43774
1.43684
1.43611
1.4354
1.43476
1.43411
1.43359
1.41236
1.41237
1.41256
1.41297
1.4135
1.41394
1.41427
1.41438
1.41432
1.41407
1.41372
1.41339
1.41317
1.41301
1.41292
1.4129
1.41287
1.41283
1.41278
1.41277
1.41282
1.41298
1.41328
1.41371
1.41424
1.41472
1.415
1.4151
1.415
1.41466
1.41415
1.41355
1.41307
1.41285
1.41272
1.41275
1.41313
1.41378
1.41476
1.41631
1.41899
1.42393
1.43104
1.43803
1.44156
1.44256
1.44253
1.44233
1.44204
1.44176
1.44162
1.44162
1.44172
1.44183
1.44184
1.44176
1.44146
1.44096
1.44028
1.43949
1.43859
1.43764
1.43682
1.43608
1.43533
1.43456
1.4338
1.4332
1.40875
1.4091
1.40943
1.40988
1.41021
1.41052
1.41089
1.41124
1.41149
1.4115
1.41137
1.41114
1.41094
1.41081
1.41082
1.41103
1.41131
1.41148
1.41155
1.4116
1.41171
1.41193
1.41227
1.41279
1.41338
1.41387
1.41408
1.41406
1.41388
1.41363
1.41332
1.41295
1.41255
1.41233
1.41223
1.41228
1.41267
1.41328
1.4143
1.41611
1.41957
1.42543
1.43286
1.43916
1.44183
1.44237
1.44231
1.44213
1.44189
1.44168
1.44166
1.44176
1.44193
1.44202
1.44201
1.44191
1.44156
1.44103
1.44034
1.43949
1.43852
1.43751
1.43665
1.43588
1.43514
1.43434
1.43349
1.43274
1.40657
1.40738
1.40806
1.4086
1.40879
1.40897
1.40934
1.40981
1.4103
1.41052
1.41042
1.4102
1.41001
1.40993
1.41005
1.41042
1.41081
1.41106
1.41119
1.41129
1.41144
1.41167
1.41198
1.41238
1.4128
1.41317
1.41344
1.41358
1.41363
1.41352
1.41324
1.41283
1.41232
1.41198
1.41187
1.41195
1.41237
1.41313
1.41434
1.41644
1.42064
1.42734
1.43476
1.44027
1.44209
1.44225
1.44219
1.44212
1.44199
1.44191
1.44201
1.4422
1.44232
1.44235
1.44225
1.44203
1.44161
1.44103
1.44028
1.43937
1.43833
1.43727
1.43639
1.43563
1.4349
1.4341
1.43323
1.43239
1.40731
1.40803
1.40953
1.41027
1.4102
1.40979
1.40975
1.41012
1.41076
1.41137
1.41151
1.41134
1.41102
1.41076
1.4107
1.41078
1.41096
1.41108
1.41118
1.41139
1.41167
1.41192
1.41215
1.41234
1.41256
1.41286
1.41318
1.41345
1.4136
1.41356
1.41336
1.41297
1.41239
1.41192
1.41178
1.41189
1.41232
1.41317
1.41463
1.41756
1.42281
1.43
1.43689
1.44114
1.44235
1.44237
1.44239
1.44243
1.4424
1.44239
1.4425
1.4426
1.44259
1.44255
1.44237
1.44201
1.44153
1.44088
1.44008
1.43914
1.43808
1.437
1.43613
1.43539
1.43469
1.43388
1.433
1.43219
1.41089
1.4112
1.41257
1.41316
1.41308
1.41243
1.41178
1.41188
1.41232
1.41308
1.41357
1.41363
1.41353
1.41336
1.41312
1.4128
1.4125
1.41236
1.41244
1.41275
1.41319
1.41357
1.41373
1.41371
1.41352
1.41342
1.41353
1.41374
1.41386
1.41381
1.4137
1.41351
1.41312
1.41269
1.41255
1.41272
1.41323
1.4142
1.41601
1.41951
1.4254
1.43281
1.43899
1.44194
1.44273
1.44288
1.44306
1.44314
1.4431
1.443
1.44297
1.44288
1.44273
1.44255
1.44235
1.44198
1.44148
1.44082
1.44003
1.43911
1.43811
1.43709
1.43626
1.43555
1.43486
1.4342
1.43334
1.4326
1.41445
1.41413
1.4164
1.41715
1.417
1.41623
1.41539
1.41518
1.41527
1.41547
1.41563
1.41566
1.41578
1.41599
1.41591
1.41564
1.41509
1.4145
1.41432
1.41448
1.41491
1.41541
1.41565
1.41566
1.41542
1.4151
1.415
1.41504
1.41507
1.41496
1.41483
1.41471
1.41451
1.41426
1.4142
1.41445
1.41499
1.41601
1.41807
1.42209
1.42848
1.4357
1.4409
1.44294
1.4436
1.4441
1.44442
1.44448
1.44436
1.44399
1.44367
1.44339
1.44313
1.44286
1.44259
1.44222
1.44171
1.44108
1.44032
1.43945
1.4385
1.43752
1.43669
1.43599
1.4353
1.43466
1.43378
1.43313
1.41512
1.41672
1.41973
1.42035
1.41971
1.41865
1.41805
1.41786
1.41791
1.4178
1.4175
1.41726
1.41731
1.41774
1.41798
1.41783
1.41748
1.4169
1.41653
1.41659
1.41686
1.41727
1.41753
1.41753
1.41728
1.41689
1.41674
1.41675
1.41683
1.41679
1.41665
1.41644
1.41619
1.416
1.41605
1.41642
1.41707
1.41826
1.42077
1.42545
1.43222
1.43876
1.44283
1.44443
1.44514
1.44571
1.44601
1.44606
1.44587
1.44536
1.44475
1.44426
1.44383
1.44342
1.44306
1.4427
1.44226
1.44169
1.44103
1.44025
1.43936
1.43842
1.43754
1.43677
1.43604
1.43534
1.43438
1.43379
1.41702
1.42207
1.42259
1.42069
1.41922
1.41843
1.41894
1.41956
1.41977
1.41942
1.41858
1.41803
1.41788
1.41819
1.41872
1.41891
1.41886
1.41848
1.41803
1.41799
1.41814
1.41846
1.41871
1.41874
1.41853
1.41815
1.41797
1.41795
1.41805
1.41809
1.418
1.41777
1.41756
1.41748
1.41766
1.41816
1.41903
1.42042
1.42334
1.42862
1.43553
1.44135
1.44457
1.44602
1.44679
1.44731
1.44756
1.44757
1.44724
1.44658
1.4458
1.44513
1.44457
1.44406
1.44362
1.44326
1.44287
1.44238
1.44183
1.44117
1.44042
1.4396
1.43873
1.43786
1.43703
1.43619
1.43511
1.43448
1.42104
1.42582
1.42336
1.4193
1.41796
1.41822
1.41907
1.42039
1.42104
1.42079
1.41964
1.41838
1.41801
1.41806
1.41872
1.41943
1.41952
1.41926
1.41875
1.41849
1.41845
1.41861
1.41883
1.41883
1.41861
1.41829
1.41824
1.4183
1.41845
1.41855
1.41849
1.41834
1.41831
1.41837
1.41858
1.41918
1.42026
1.42205
1.42562
1.43157
1.43844
1.44346
1.44613
1.44745
1.44819
1.44857
1.44865
1.44848
1.44797
1.44726
1.44651
1.44583
1.44521
1.44465
1.44415
1.44372
1.4433
1.4429
1.44244
1.44192
1.44129
1.44055
1.43969
1.43874
1.43784
1.43689
1.43574
1.43504
1.41781
1.42792
1.42139
1.41837
1.4168
1.41719
1.41822
1.42031
1.42126
1.42104
1.42001
1.41881
1.41833
1.41829
1.41883
1.41928
1.4194
1.41925
1.41876
1.41852
1.41841
1.41836
1.41835
1.41828
1.41814
1.4181
1.41829
1.41863
1.41897
1.4191
1.41905
1.41886
1.41881
1.41887
1.41911
1.4198
1.42107
1.4233
1.42757
1.43402
1.44058
1.44486
1.44697
1.44805
1.44869
1.449
1.44898
1.44872
1.44819
1.44755
1.4469
1.44628
1.44565
1.44505
1.4445
1.44399
1.44358
1.44324
1.44289
1.44249
1.44193
1.44122
1.44037
1.43938
1.43835
1.43726
1.43605
1.43521
1.31985
1.41628
1.41908
1.42024
1.41603
1.41411
1.41538
1.41903
1.42024
1.42024
1.4196
1.41884
1.41872
1.41878
1.41908
1.41925
1.41931
1.41906
1.41865
1.41842
1.41821
1.41816
1.41801
1.41785
1.41767
1.41785
1.41833
1.41907
1.41968
1.41987
1.41984
1.41942
1.41897
1.41894
1.41915
1.41987
1.42143
1.42422
1.42916
1.43589
1.4421
1.44555
1.44723
1.44822
1.44896
1.44924
1.44921
1.44891
1.44839
1.44774
1.44708
1.44643
1.4458
1.44518
1.44463
1.4441
1.44373
1.44344
1.44319
1.44287
1.4423
1.44157
1.44066
1.4396
1.43846
1.43727
1.43604
1.43511
0.923138
1.31393
1.42378
1.42857
1.41209
1.41135
1.41394
1.41847
1.41928
1.41892
1.41851
1.41862
1.41874
1.41925
1.41959
1.41969
1.41943
1.41885
1.41842
1.41814
1.41797
1.41788
1.41762
1.41746
1.41736
1.41768
1.41834
1.41923
1.42001
1.42029
1.42032
1.41988
1.4191
1.41878
1.41889
1.41952
1.42126
1.42479
1.43038
1.4373
1.4427
1.44546
1.44698
1.44802
1.449
1.4494
1.44938
1.4491
1.44857
1.44788
1.44713
1.44642
1.44575
1.44513
1.44458
1.44412
1.44378
1.44351
1.44324
1.44285
1.44224
1.44146
1.44051
1.43942
1.43826
1.43703
1.43577
1.43479
0.641977
0.907795
1.31491
1.40631
1.40656
1.41142
1.41844
1.42088
1.4193
1.4178
1.41752
1.41808
1.41856
1.41944
1.42002
1.42006
1.41966
1.41872
1.41811
1.41779
1.41762
1.41759
1.41735
1.4172
1.41716
1.41741
1.41801
1.41898
1.41993
1.42032
1.4204
1.42014
1.41932
1.41859
1.4186
1.41922
1.42118
1.42546
1.43178
1.4388
1.44339
1.44563
1.44687
1.44776
1.44852
1.44893
1.44898
1.44872
1.44824
1.44755
1.44677
1.44607
1.44547
1.44491
1.44435
1.44397
1.4437
1.44338
1.44304
1.44261
1.44195
1.44112
1.44011
1.43897
1.43778
1.43657
1.43533
1.43441
0.620167
0.63763
0.905564
1.31084
1.41049
1.41834
1.42432
1.42104
1.41708
1.41635
1.41673
1.41734
1.41805
1.41943
1.42018
1.42007
1.41952
1.41851
1.41788
1.41762
1.41752
1.41753
1.41727
1.4171
1.41706
1.41709
1.41748
1.41829
1.41937
1.4201
1.42025
1.4201
1.41958
1.41871
1.4185
1.41925
1.42151
1.42651
1.43361
1.4405
1.44426
1.44604
1.44695
1.44758
1.44804
1.44826
1.44835
1.44817
1.44775
1.44716
1.44645
1.44579
1.44517
1.44458
1.44408
1.44371
1.44335
1.44285
1.44243
1.44198
1.44129
1.44042
1.4394
1.43825
1.43708
1.43595
1.43483
1.43403
0.62007
0.620141
0.638652
0.898207
1.28521
1.40875
1.4283
1.41444
1.41131
1.41516
1.41643
1.41642
1.41721
1.41873
1.41976
1.41963
1.41912
1.41824
1.41751
1.41722
1.41715
1.41724
1.4171
1.41695
1.41686
1.41682
1.41701
1.41751
1.41828
1.41916
1.41973
1.41981
1.41957
1.41908
1.4188
1.41959
1.42232
1.42802
1.43576
1.4423
1.44522
1.44655
1.44716
1.44752
1.44768
1.44775
1.44768
1.44757
1.44726
1.44681
1.44625
1.44565
1.44507
1.44451
1.44402
1.44356
1.44303
1.44236
1.44168
1.44105
1.44031
1.43942
1.43842
1.43735
1.43628
1.43524
1.4342
1.43361
0.62007
0.62007
0.620148
0.635975
0.874422
1.2959
1.41704
1.40514
1.4128
1.41731
1.41671
1.41584
1.41746
1.41883
1.41918
1.41876
1.41834
1.41785
1.41713
1.41662
1.41641
1.41637
1.41642
1.41653
1.41661
1.41674
1.41688
1.4171
1.41751
1.41806
1.41875
1.41925
1.41932
1.41927
1.4193
1.42023
1.42354
1.42995
1.43806
1.44386
1.44606
1.44702
1.44739
1.44749
1.44742
1.44734
1.44722
1.44708
1.44694
1.44667
1.44622
1.4457
1.44514
1.44455
1.44396
1.44337
1.44271
1.44188
1.44097
1.44014
1.43935
1.43847
1.43752
1.43657
1.43566
1.43471
1.43368
1.43312
0.62007
0.62007
0.62007
0.620131
0.632988
0.857583
1.27426
1.39641
1.42505
1.42369
1.41793
1.41754
1.42078
1.42066
1.41918
1.4179
1.41758
1.41741
1.41698
1.4164
1.416
1.41578
1.4157
1.41592
1.41641
1.41677
1.41706
1.41714
1.41723
1.41752
1.41789
1.41848
1.41898
1.41925
1.41972
1.42107
1.42515
1.43223
1.44013
1.44491
1.44657
1.44727
1.44759
1.44761
1.4474
1.44718
1.44706
1.44693
1.44682
1.44666
1.44639
1.44594
1.4454
1.44475
1.44404
1.44331
1.44248
1.4415
1.44041
1.43949
1.43866
1.43782
1.43698
1.43614
1.43531
1.43442
1.43342
1.43277
0.62007
0.62007
0.62007
0.62007
0.62011
0.631062
0.832729
1.24174
1.42045
1.42318
1.41216
1.42017
1.42516
1.42121
1.41848
1.41696
1.41692
1.41703
1.41687
1.4164
1.41596
1.41563
1.41547
1.41568
1.41644
1.4171
1.41747
1.41751
1.41729
1.41732
1.41746
1.41781
1.41855
1.41924
1.4201
1.42216
1.42719
1.43485
1.44188
1.44539
1.4468
1.44732
1.44766
1.44776
1.44755
1.44722
1.4471
1.44699
1.44689
1.44679
1.44663
1.44626
1.44572
1.44505
1.44424
1.44334
1.44236
1.44126
1.44009
1.43915
1.43832
1.43755
1.43677
1.43599
1.43518
1.43435
1.4334
1.43256
0.62007
0.62007
0.62007
0.62007
0.62007
0.620104
0.627588
0.813759
1.24408
1.38863
1.40264
1.4289
1.42582
1.41763
1.41627
1.41643
1.417
1.41686
1.4169
1.41704
1.41674
1.41618
1.41583
1.41607
1.41692
1.41781
1.41821
1.41819
1.41759
1.41717
1.41718
1.41736
1.4181
1.41929
1.42066
1.42367
1.42981
1.43776
1.44336
1.44551
1.4466
1.44708
1.44746
1.44775
1.44773
1.44742
1.44716
1.44709
1.44702
1.44695
1.44681
1.4465
1.44596
1.44523
1.44435
1.44337
1.4423
1.44115
1.44
1.43906
1.43825
1.43751
1.43684
1.43608
1.43531
1.43449
1.43355
1.43248
0.62007
0.62007
0.62007
0.62007
0.62007
0.62007
0.620089
0.626795
0.79034
1.1994
1.39723
1.4391
1.42111
1.40915
1.41504
1.41693
1.41688
1.41707
1.41738
1.4178
1.41798
1.41785
1.41744
1.4174
1.41794
1.41871
1.419
1.41882
1.41817
1.41727
1.41689
1.41704
1.41773
1.41931
1.42151
1.42568
1.43301
1.44071
1.4445
1.44564
1.44628
1.44672
1.44712
1.44753
1.44772
1.44762
1.44727
1.44719
1.44712
1.447
1.44686
1.4466
1.44605
1.44527
1.44431
1.44324
1.44211
1.44096
1.43996
1.43921
1.43851
1.43785
1.43723
1.43649
1.43569
1.43479
1.43378
1.43249
0.62007
0.62007
0.62007
0.62007
0.62007
0.62007
0.62007
0.620087
0.624432
0.763415
1.17002
1.41354
1.4006
1.41315
1.42009
1.4189
1.41761
1.41699
1.417
1.4176
1.41846
1.41877
1.41879
1.41888
1.41907
1.41929
1.41931
1.41901
1.41846
1.41756
1.41678
1.41691
1.41761
1.41932
1.42249
1.42802
1.43628
1.44318
1.44527
1.44574
1.44609
1.44651
1.44704
1.44752
1.44778
1.44777
1.4475
1.44731
1.44716
1.447
1.44683
1.44648
1.44584
1.44496
1.44386
1.44267
1.44157
1.4406
1.43986
1.43925
1.43876
1.43826
1.43763
1.43682
1.43596
1.435
1.43393
1.43257
0.62007
0.62007
0.62007
0.62007
0.62007
0.62007
0.62007
0.62007
0.620078
0.623171
0.734479
1.14119
1.36157
1.43595
1.42886
1.4195
1.41796
1.41585
1.41575
1.41707
1.41863
1.41933
1.41944
1.41945
1.41941
1.41935
1.41921
1.4189
1.4186
1.418
1.41719
1.41713
1.41789
1.41977
1.42368
1.4305
1.43917
1.44476
1.44578
1.4458
1.44604
1.44643
1.44702
1.4476
1.44796
1.44803
1.44781
1.44753
1.44724
1.44699
1.44678
1.44623
1.44543
1.44442
1.44322
1.44194
1.4409
1.44011
1.43954
1.43916
1.43887
1.43845
1.43774
1.43688
1.43596
1.43494
1.43381
1.43251
0.62007
0.62007
0.62007
0.62007
0.62007
0.62007
0.62007
0.62007
0.62007
0.620075
0.622002
0.711352
1.07217
1.39153
1.41853
1.41466
1.41695
1.41531
1.41532
1.41692
1.41849
1.4191
1.41936
1.41926
1.41911
1.41884
1.41878
1.41893
1.41884
1.41857
1.41794
1.4178
1.41868
1.42081
1.42546
1.4332
1.44171
1.44563
1.44594
1.44588
1.44599
1.44643
1.44715
1.44787
1.44835
1.44844
1.44823
1.44786
1.44747
1.44715
1.44672
1.44596
1.44506
1.44401
1.44276
1.44144
1.44045
1.43973
1.43919
1.43885
1.43869
1.43838
1.43763
1.4367
1.43572
1.43462
1.43343
1.43216
0.62007
0.62007
0.62007
0.62007
0.62007
0.62007
0.62007
0.62007
0.62007
0.62007
0.620073
0.621181
0.685926
1.03872
1.35036
1.4149
1.42059
1.41595
1.41679
1.41895
1.41888
1.4188
1.41888
1.41857
1.4184
1.41816
1.41843
1.41898
1.4191
1.41893
1.41836
1.41844
1.41967
1.42239
1.42783
1.43601
1.44377
1.44613
1.44611
1.44602
1.44611
1.44659
1.44738
1.44814
1.44868
1.44881
1.44863
1.44829
1.44781
1.44731
1.4467
1.44585
1.44487
1.44374
1.44249
1.44122
1.44023
1.43952
1.43895
1.43849
1.43819
1.43788
1.43712
1.43613
1.4351
1.43398
1.43277
1.43162
0.62007
0.62007
0.62007
0.62007
0.62007
0.62007
0.62007
0.62007
0.62007
0.62007
0.62007
0.620071
0.620719
0.666373
0.981171
1.33088
1.42326
1.41803
1.42025
1.42085
1.41996
1.41965
1.4187
1.4177
1.41749
1.41746
1.41806
1.41855
1.41857
1.41846
1.41814
1.41865
1.42023
1.42363
1.43
1.43836
1.44466
1.44612
1.44613
1.44618
1.4465
1.447
1.4477
1.44838
1.44886
1.44906
1.44893
1.44862
1.44812
1.44749
1.44675
1.44588
1.44484
1.4437
1.44249
1.44124
1.44015
1.43939
1.43878
1.43818
1.43758
1.43698
1.43611
1.4351
1.43409
1.43306
1.43197
1.43102
0.62007
0.62007
0.62007
0.62007
0.62007
0.62007
0.62007
0.62007
0.62007
0.62007
0.62007
0.62007
0.620071
0.620401
0.653016
0.916567
1.31153
1.39392
1.41426
1.41986
1.42051
1.42088
1.41831
1.41628
1.41605
1.4167
1.41775
1.41795
1.41779
1.41729
1.41707
1.41799
1.42003
1.42426
1.43137
1.43919
1.44433
1.44566
1.44597
1.44632
1.44684
1.4473
1.44776
1.44827
1.44862
1.44875
1.44887
1.44876
1.44825
1.44761
1.44683
1.44595
1.44493
1.44382
1.44269
1.44152
1.44036
1.43937
1.4386
1.43788
1.43707
1.43619
1.43515
1.43409
1.43307
1.43218
1.43121
1.43045
0.62007
0.62007
0.62007
0.62007
0.62007
0.62007
0.62007
0.62007
0.62007
0.62007
0.62007
0.62007
0.62007
0.62007
0.62026
0.637863
0.874719
1.24729
1.41705
1.42444
1.42431
1.42076
1.41604
1.41486
1.415
1.41632
1.4179
1.41816
1.41792
1.41705
1.41681
1.41777
1.42011
1.42494
1.43253
1.43982
1.44378
1.44507
1.44568
1.44645
1.44716
1.44765
1.44799
1.44813
1.44819
1.44813
1.44811
1.44813
1.44776
1.44725
1.44675
1.44599
1.44503
1.444
1.44292
1.44181
1.44068
1.43959
1.43856
1.43761
1.43667
1.43565
1.43454
1.43347
1.43244
1.43161
1.43072
1.42991
0.62007
0.62007
0.62007
0.62007
0.62007
0.62007
0.62007
0.62007
0.62007
0.62007
0.62007
0.62007
0.62007
0.62007
0.62007
0.62014
0.63198
0.802971
1.22072
1.38785
1.41657
1.41731
1.41416
1.41506
1.41597
1.41691
1.41855
1.41953
1.41962
1.41891
1.4183
1.41882
1.42102
1.4262
1.43408
1.4409
1.44401
1.44501
1.44563
1.44663
1.44754
1.44802
1.44823
1.44818
1.44796
1.44769
1.44744
1.44724
1.44691
1.44654
1.44617
1.44573
1.445
1.44402
1.44296
1.44186
1.44079
1.43974
1.43865
1.43755
1.43646
1.43537
1.43427
1.43321
1.4322
1.43136
1.43043
1.42947
0.62007
0.62007
0.62007
0.62007
0.62007
0.62007
0.62007
0.62007
0.62007
0.62007
0.62007
0.62007
0.62007
0.62007
0.62007
0.62007
0.620106
0.625312
0.762651
1.13941
1.39975
1.42264
1.4189
1.41839
1.4172
1.41766
1.41879
1.42004
1.42028
1.41998
1.4199
1.42048
1.42253
1.42777
1.43584
1.44229
1.44491
1.44571
1.44621
1.44715
1.44815
1.44853
1.44863
1.44839
1.44792
1.44752
1.44714
1.44678
1.44638
1.44603
1.44562
1.44519
1.44469
1.44383
1.44281
1.44174
1.44069
1.43971
1.4387
1.43763
1.43651
1.43539
1.43429
1.4332
1.43214
1.43126
1.43026
1.42919
0.62007
0.62007
0.62007
0.62007
0.62007
0.62007
0.62007
0.62007
0.62007
0.62007
0.62007
0.62007
0.62007
0.62007
0.62007
0.62007
0.62007
0.62008
0.622939
0.714195
1.09097
1.34691
1.41503
1.42131
1.41662
1.41625
1.41812
1.41971
1.41996
1.41984
1.41999
1.42113
1.42362
1.42943
1.43791
1.44436
1.44666
1.44718
1.44756
1.44816
1.44871
1.44895
1.44895
1.44869
1.4482
1.44768
1.44714
1.44666
1.44633
1.44597
1.44542
1.44481
1.44427
1.44345
1.44246
1.44147
1.44051
1.43959
1.43864
1.43765
1.43663
1.43553
1.43441
1.43327
1.43215
1.43111
1.43003
1.42891
0.62007
0.62007
0.62007
0.62007
0.62007
0.62007
0.62007
0.62007
0.62007
0.62007
0.62007
0.62007
0.62007
0.62007
0.62007
0.62007
0.62007
0.62007
0.620074
0.621331
0.682386
0.99502
1.34257
1.41654
1.41277
1.41767
1.41872
1.41742
1.41774
1.41808
1.41942
1.42131
1.42451
1.43111
1.43981
1.44559
1.44747
1.44801
1.44839
1.44878
1.44898
1.44911
1.44902
1.44876
1.44838
1.44799
1.44755
1.44709
1.44669
1.44618
1.44545
1.44479
1.44415
1.44327
1.44224
1.44114
1.44005
1.4391
1.43835
1.43755
1.43662
1.4356
1.43449
1.4333
1.43207
1.43086
1.42967
1.42851
0.62007
0.62007
0.62007
0.62007
0.62007
0.62007
0.62007
0.62007
0.62007
0.62007
0.62007
0.62007
0.62007
0.62007
0.62007
0.62007
0.62007
0.62007
0.62007
0.620072
0.620597
0.655993
0.915671
1.2923
1.40398
1.42692
1.42215
1.41605
1.41638
1.41675
1.4189
1.42153
1.42568
1.43311
1.44137
1.44564
1.44711
1.44794
1.44815
1.44822
1.44833
1.44836
1.44835
1.44832
1.44829
1.4482
1.44792
1.44759
1.44723
1.44667
1.44591
1.44511
1.44424
1.44328
1.44224
1.44114
1.43993
1.4387
1.43777
1.43707
1.43645
1.43554
1.43445
1.43321
1.43188
1.43048
1.42913
1.42791
0.62007
0.62007
0.62007
0.62007
0.62007
0.62007
0.62007
0.62007
0.62007
0.62007
0.62007
0.62007
0.62007
0.62007
0.62007
0.62007
0.62007
0.62007
0.62007
0.62007
0.620071
0.620287
0.636626
0.84743
1.21739
1.41506
1.41965
1.41766
1.41593
1.41637
1.4195
1.42211
1.42747
1.43587
1.44303
1.4459
1.44687
1.44765
1.44781
1.44771
1.44755
1.44753
1.44761
1.4477
1.44778
1.44793
1.44801
1.44785
1.44746
1.44683
1.44608
1.44526
1.44436
1.4434
1.44239
1.4413
1.44003
1.43862
1.4374
1.43653
1.43594
1.43531
1.43428
1.43302
1.43163
1.43014
1.42864
1.42726
0.62007
0.62007
0.62007
0.62007
0.62007
0.62007
0.62007
0.62007
0.62007
0.62007
0.62007
0.62007
0.62007
0.62007
0.62007
0.62007
0.62007
0.62007
0.62007
0.62007
0.62007
0.62007
0.62013
0.62898
0.766911
1.1633
1.36947
1.42217
1.41995
1.4174
1.42062
1.4237
1.43022
1.43913
1.44433
1.44621
1.44707
1.44778
1.44799
1.44796
1.44774
1.44761
1.44773
1.44783
1.44791
1.4479
1.44783
1.44772
1.44734
1.44672
1.44599
1.44517
1.4443
1.44343
1.44259
1.44166
1.44051
1.43894
1.43729
1.43603
1.43513
1.43446
1.43368
1.43256
1.43135
1.42998
1.42845
1.4269
0.62007
0.62007
0.62007
0.62007
0.62007
0.62007
0.62007
0.62007
0.62007
0.62007
0.62007
0.62007
0.62007
0.62007
0.62007
0.62007
0.62007
0.62007
0.62007
0.62007
0.62007
0.62007
0.62007
0.620092
0.623259
0.716823
1.05785
1.36589
1.41472
1.41631
1.42227
1.42681
1.43293
1.44087
1.44519
1.44699
1.44826
1.44909
1.44945
1.44948
1.44913
1.44873
1.44868
1.44881
1.44872
1.44837
1.44792
1.44732
1.44661
1.44594
1.44517
1.44438
1.44367
1.44309
1.44256
1.4418
1.44074
1.43927
1.43744
1.43563
1.43427
1.43335
1.43262
1.43179
1.43071
1.42954
1.4282
1.42657
0.62007
0.62007
0.62007
0.62007
0.62007
0.62007
0.62007
0.62007
0.62007
0.62007
0.62007
0.62007
0.62007
0.62007
0.62007
0.62007
0.62007
0.62007
0.62007
0.62007
0.62007
0.62007
0.62007
0.62007
0.620075
0.621312
0.675139
0.969798
1.30178
1.4135
1.42807
1.42782
1.43385
1.44055
1.44547
1.44742
1.44878
1.44986
1.45063
1.45113
1.45107
1.45047
1.45008
1.45004
1.44978
1.44929
1.44845
1.4472
1.44594
1.44501
1.44419
1.4434
1.44264
1.44195
1.44138
1.44081
1.4399
1.43867
1.43707
1.43515
1.43335
1.43211
1.43119
1.4303
1.42927
1.42817
1.42701
1.42544
0.62007
0.62007
0.62007
0.62007
0.62007
0.62007
0.62007
0.62007
0.62007
0.62007
0.62007
0.62007
0.62007
0.62007
0.62007
0.62007
0.62007
0.62007
0.62007
0.62007
0.62007
0.62007
0.62007
0.62007
0.62007
0.620072
0.62052
0.645984
0.870001
1.25895
1.39009
1.41773
1.43599
1.4434
1.44475
1.44531
1.44608
1.44791
1.45015
1.45144
1.45194
1.45125
1.45043
1.45013
1.44979
1.44928
1.44852
1.44724
1.44566
1.44457
1.44377
1.44295
1.44201
1.4409
1.43987
1.439
1.4381
1.43702
1.43577
1.43424
1.43246
1.43081
1.42963
1.42858
1.4275
1.42642
1.42532
1.42381
0.62007
0.62007
0.62007
0.62007
0.62007
0.62007
0.62007
0.62007
0.62007
0.62007
0.62007
0.62007
0.62007
0.62007
0.62007
0.62007
0.62007
0.62007
0.62007
0.62007
0.62007
0.62007
0.62007
0.62007
0.62007
0.62007
0.620071
0.620192
0.631502
0.787884
1.14261
1.40623
1.44923
1.45008
1.4442
1.44303
1.44361
1.44678
1.44982
1.45098
1.45114
1.45007
1.44871
1.44815
1.44786
1.4475
1.44695
1.44606
1.44478
1.44382
1.44308
1.44227
1.4412
1.4397
1.43804
1.43681
1.43588
1.43501
1.43401
1.43283
1.43135
1.4296
1.42808
1.42694
1.42584
1.42479
1.42369
1.42226
0.62007
0.62007
0.62007
0.62007
0.62007
0.62007
0.62007
0.62007
0.62007
0.62007
0.62007
0.62007
0.62007
0.62007
0.62007
0.62007
0.62007
0.62007
0.62007
0.62007
0.62007
0.62007
0.62007
0.62007
0.62007
0.62007
0.62007
0.62007
0.620103
0.623929
0.71545
1.0742
1.37985
1.43519
1.44174
1.44315
1.4456
1.44922
1.45117
1.45108
1.45014
1.44792
1.44633
1.44575
1.44562
1.44543
1.44498
1.44414
1.44301
1.44236
1.44182
1.44105
1.43995
1.4384
1.43644
1.43478
1.43373
1.43295
1.43217
1.43123
1.43003
1.42844
1.42676
1.4255
1.42436
1.42333
1.42223
1.42089
0.62007
0.62007
0.62007
0.62007
0.62007
0.62007
0.62007
0.62007
0.62007
0.62007
0.62007
0.62007
0.62007
0.62007
0.62007
0.62007
0.62007
0.62007
0.62007
0.62007
0.62007
0.62007
0.62007
0.62007
0.62007
0.62007
0.62007
0.62007
0.62007
0.620076
0.62139
0.674949
0.981207
1.32917
1.45146
1.45433
1.45112
1.45121
1.45017
1.44989
1.44843
1.44543
1.44442
1.44429
1.44494
1.44497
1.44439
1.4432
1.44165
1.44087
1.44035
1.43961
1.43857
1.43724
1.43547
1.43364
1.43247
1.43167
1.43093
1.43002
1.42885
1.42739
1.42583
1.42453
1.42334
1.42228
1.42114
1.41986
0.62007
0.62007
0.62007
0.62007
0.62007
0.62007
0.62007
0.62007
0.62007
0.62007
0.62007
0.62007
0.62007
0.62007
0.62007
0.62007
0.62007
0.62007
0.62007
0.62007
0.62007
0.62007
0.62007
0.62007
0.62007
0.62007
0.62007
0.62007
0.62007
0.62007
0.620072
0.620494
0.648997
0.877038
1.3075
1.41803
1.43803
1.44334
1.44529
1.44635
1.4451
1.44326
1.44265
1.44341
1.44495
1.44496
1.44416
1.44246
1.44048
1.43942
1.43874
1.43819
1.43734
1.43631
1.43494
1.4332
1.43179
1.43082
1.42993
1.42898
1.4279
1.4267
1.42537
1.42408
1.42279
1.42162
1.42043
1.41911
0.62007
0.62007
0.62007
0.62007
0.62007
0.62007
0.62007
0.62007
0.62007
0.62007
0.62007
0.62007
0.62007
0.62007
0.62007
0.62007
0.62007
0.62007
0.62007
0.62007
0.62007
0.62007
0.62007
0.62007
0.62007
0.62007
0.62007
0.62007
0.62007
0.62007
0.62007
0.620071
0.620212
0.631277
0.823201
1.21309
1.43656
1.45322
1.45271
1.44895
1.44294
1.44154
1.44166
1.44311
1.44445
1.44412
1.44306
1.44104
1.43921
1.4382
1.43747
1.43713
1.43656
1.43568
1.43451
1.43291
1.43139
1.43032
1.42937
1.42845
1.42745
1.42637
1.42515
1.42388
1.42254
1.42123
1.41989
1.41845
0.62007
0.62007
0.62007
0.62007
0.62007
0.62007
0.62007
0.62007
0.62007
0.62007
0.62007
0.62007
0.62007
0.62007
0.62007
0.62007
0.62007
0.62007
0.62007
0.62007
0.62007
0.62007
0.62007
0.62007
0.62007
0.62007
0.62007
0.62007
0.62007
0.62007
0.62007
0.62007
0.62007
0.620104
0.626024
0.750629
1.15182
1.39558
1.45017
1.45242
1.44661
1.44528
1.44433
1.44452
1.44448
1.4437
1.44219
1.44011
1.43862
1.43769
1.43704
1.43665
1.4361
1.43524
1.43412
1.43266
1.43125
1.43012
1.42904
1.42801
1.42699
1.426
1.42496
1.42384
1.42259
1.42116
1.41958
1.41791
0.62007
0.62007
0.62007
0.62007
0.62007
0.62007
0.62007
0.62007
0.62007
0.62007
0.62007
0.62007
0.62007
0.62007
0.62007
0.62007
0.62007
0.62007
0.62007
0.62007
0.62007
0.62007
0.62007
0.62007
0.62007
0.62007
0.62007
0.62007
0.62007
0.62007
0.62007
0.62007
0.62007
0.62007
0.620082
0.622387
0.70154
1.05765
1.37174
1.44968
1.45065
1.44842
1.44553
1.44458
1.44454
1.44334
1.44191
1.44
1.43898
1.43828
1.43752
1.4368
1.43587
1.43485
1.43366
1.43238
1.43117
1.42993
1.42869
1.42746
1.42631
1.42532
1.42449
1.42349
1.42226
1.42088
1.41928
1.41756
0.62007
0.62007
0.62007
0.62007
0.62007
0.62007
0.62007
0.62007
0.62007
0.62007
0.62007
0.62007
0.62007
0.62007
0.62007
0.62007
0.62007
0.62007
0.62007
0.62007
0.62007
0.62007
0.62007
0.62007
0.62007
0.62007
0.62007
0.62007
0.62007
0.62007
0.62007
0.62007
0.62007
0.62007
0.62007
0.620073
0.620919
0.668166
0.946098
1.34959
1.43469
1.44497
1.44264
1.44473
1.4448
1.44342
1.44122
1.43999
1.4396
1.43933
1.43847
1.43715
1.43559
1.43434
1.43328
1.4323
1.43123
1.42999
1.42861
1.42713
1.42582
1.42477
1.42391
1.42297
1.42181
1.42054
1.41913
1.41749
0.62007
0.62007
0.62007
0.62007
0.62007
0.62007
0.62007
0.62007
0.62007
0.62007
0.62007
0.62007
0.62007
0.62007
0.62007
0.62007
0.62007
0.62007
0.62007
0.62007
0.62007
0.62007
0.62007
0.62007
0.62007
0.62007
0.62007
0.62007
0.62007
0.62007
0.62007
0.62007
0.62007
0.62007
0.62007
0.62007
0.620071
0.620407
0.641301
0.872929
1.27831
1.42569
1.44943
1.44918
1.44568
1.44204
1.43979
1.43918
1.43936
1.43939
1.43865
1.4373
1.43545
1.43378
1.43261
1.43172
1.43096
1.42991
1.42869
1.42727
1.42578
1.42454
1.42353
1.42259
1.4215
1.4203
1.41895
1.41743
0.62007
0.62007
0.62007
0.62007
0.62007
0.62007
0.62007
0.62007
0.62007
0.62007
0.62007
0.62007
0.62007
0.62007
0.62007
0.62007
0.62007
0.62007
0.62007
0.62007
0.62007
0.62007
0.62007
0.62007
0.62007
0.62007
0.62007
0.62007
0.62007
0.62007
0.62007
0.62007
0.62007
0.62007
0.62007
0.62007
0.62007
0.62007
0.620162
0.63017
0.795057
1.17058
1.42864
1.44517
1.44212
1.43935
1.43925
1.43933
1.43946
1.43965
1.43876
1.43711
1.43497
1.43304
1.43186
1.43102
1.43042
1.42958
1.42839
1.42707
1.42578
1.4247
1.42367
1.4226
1.42146
1.42025
1.41891
1.41748
0.62007
0.62007
0.62007
0.62007
0.62007
0.62007
0.62007
0.62007
0.62007
0.62007
0.62007
0.62007
0.62007
0.62007
0.62007
0.62007
0.62007
0.62007
0.62007
0.62007
0.62007
0.62007
0.62007
0.62007
0.62007
0.62007
0.62007
0.62007
0.62007
0.62007
0.62007
0.62007
0.62007
0.62007
0.62007
0.62007
0.62007
0.62007
0.62007
0.620097
0.624213
0.716044
1.10173
1.37056
1.44216
1.44527
1.44469
1.44169
1.44066
1.44015
1.43891
1.4369
1.43504
1.43319
1.43187
1.43096
1.43016
1.42909
1.4278
1.42653
1.42549
1.42466
1.4238
1.42275
1.42163
1.42037
1.41899
1.41755
0.62007
0.62007
0.62007
0.62007
0.62007
0.62007
0.62007
0.62007
0.62007
0.62007
0.62007
0.62007
0.62007
0.62007
0.62007
0.62007
0.62007
0.62007
0.62007
0.62007
0.62007
0.62007
0.62007
0.62007
0.62007
0.62007
0.62007
0.62007
0.62007
0.62007
0.62007
0.62007
0.62007
0.62007
0.62007
0.62007
0.62007
0.62007
0.62007
0.62007
0.620077
0.6213
0.679345
0.968905
1.33321
1.4409
1.44335
1.44158
1.44021
1.43918
1.43817
1.43683
1.43545
1.43428
1.4332
1.43213
1.43068
1.42902
1.42739
1.42612
1.42519
1.42452
1.42393
1.42298
1.42184
1.42053
1.41908
1.41754
0.62007
0.62007
0.62007
0.62007
0.62007
0.62007
0.62007
0.62007
0.62007
0.62007
0.62007
0.62007
0.62007
0.62007
0.62007
0.62007
0.62007
0.62007
0.62007
0.62007
0.62007
0.62007
0.62007
0.62007
0.62007
0.62007
0.62007
0.62007
0.62007
0.62007
0.62007
0.62007
0.62007
0.62007
0.62007
0.62007
0.62007
0.62007
0.62007
0.62007
0.62007
0.620072
0.62055
0.645343
0.860803
1.27324
1.4193
1.44377
1.44273
1.43865
1.43634
1.4361
1.43559
1.43481
1.4338
1.43256
1.43104
1.42939
1.42762
1.42607
1.42511
1.42443
1.42398
1.42316
1.422
1.42066
1.41916
1.4175
0.62007
0.62007
0.62007
0.62007
0.62007
0.62007
0.62007
0.62007
0.62007
0.62007
0.62007
0.62007
0.62007
0.62007
0.62007
0.62007
0.62007
0.62007
0.62007
0.62007
0.62007
0.62007
0.62007
0.62007
0.62007
0.62007
0.62007
0.62007
0.62007
0.62007
0.62007
0.62007
0.62007
0.62007
0.62007
0.62007
0.62007
0.62007
0.62007
0.62007
0.62007
0.62007
0.620071
0.620184
0.629249
0.785515
1.14569
1.41546
1.44193
1.43486
1.43427
1.43457
1.43483
1.43406
1.43254
1.4315
1.43043
1.42917
1.4279
1.4265
1.4253
1.42445
1.42386
1.42312
1.42197
1.42065
1.41922
1.41753
0.62007
0.62007
0.62007
0.62007
0.62007
0.62007
0.62007
0.62007
0.62007
0.62007
0.62007
0.62007
0.62007
0.62007
0.62007
0.62007
0.62007
0.62007
0.62007
0.62007
0.62007
0.62007
0.62007
0.62007
0.62007
0.62007
0.62007
0.62007
0.62007
0.62007
0.62007
0.62007
0.62007
0.62007
0.62007
0.62007
0.62007
0.62007
0.62007
0.62007
0.62007
0.62007
0.62007
0.62007
0.620094
0.623729
0.702615
1.03899
1.34742
1.43287
1.44566
1.44177
1.43682
1.43295
1.4311
1.43033
1.42996