/*--------------------------------*- C++ -*----------------------------------*\
| =========                 |                                                 |
| \\      /  F ield         | OpenFOAM: The Open Source CFD Toolbox           |
|  \\    /   O peration     | Version:  2306                                  |
|   \\  /    A nd           | Website:  www.openfoam.com                      |
|    \\/     M anipulation  |                                                 |
\*---------------------------------------------------------------------------*/
FoamFile
{
    version     2.0;
    format      ascii;
    arch        "LSB;label=32;scalar=64";
    class       volScalarField;
    location    "7e-05";
    object      T;
}
// * * * * * * * * * * * * * * * * * * * * * * * * * * * * * * * * * * * * * //

dimensions      [0 0 0 1 0 0 0];

internalField   nonuniform List<scalar> 
9032
(
269.222
269.206
269.22
269.26
269.345
269.469
269.587
269.686
269.756
269.784
269.798
269.805
269.806
269.809
269.817
269.829
269.848
269.875
269.909
269.939
269.956
269.967
269.974
269.978
269.979
269.992
270.037
270.083
270.133
270.178
270.196
270.196
270.183
270.165
270.155
270.15
270.153
270.168
270.207
270.298
270.457
270.736
271.158
271.681
272.095
272.29
272.353
272.387
272.382
272.362
272.348
272.344
272.345
272.354
272.365
272.381
272.378
272.359
272.33
272.281
272.21
272.123
272.04
271.972
271.911
271.856
271.809
271.797
269.564
269.531
269.55
269.606
269.695
269.797
269.872
269.928
269.944
269.945
269.948
269.957
269.965
269.966
269.963
269.963
269.968
269.982
270.003
270.022
270.04
270.065
270.093
270.118
270.137
270.163
270.198
270.224
270.245
270.243
270.235
270.219
270.205
270.196
270.189
270.188
270.204
270.237
270.291
270.388
270.565
270.886
271.388
271.944
272.331
272.466
272.472
272.456
272.428
272.397
272.385
272.385
272.391
272.401
272.41
272.417
272.406
272.381
272.336
272.278
272.207
272.127
272.053
271.992
271.932
271.882
271.831
271.806
270.368
270.362
270.368
270.384
270.41
270.441
270.464
270.47
270.457
270.425
270.39
270.364
270.348
270.335
270.323
270.31
270.299
270.296
270.296
270.298
270.302
270.308
270.321
270.349
270.391
270.429
270.453
270.46
270.454
270.428
270.39
270.345
270.31
270.295
270.284
270.285
270.308
270.352
270.423
270.531
270.73
271.107
271.659
272.184
272.509
272.571
272.56
272.529
272.493
272.461
272.461
272.466
272.479
272.485
272.485
272.478
272.453
272.416
272.37
272.314
272.246
272.17
272.1
272.033
271.965
271.901
271.841
271.812
271.209
271.173
271.128
271.092
271.05
271.021
271.004
270.985
270.955
270.911
270.853
270.798
270.753
270.713
270.681
270.661
270.648
270.636
270.622
270.609
270.6
270.592
270.589
270.599
270.621
270.637
270.64
270.631
270.61
270.584
270.55
270.507
270.464
270.437
270.416
270.414
270.431
270.462
270.523
270.649
270.908
271.359
271.937
272.415
272.646
272.648
272.632
272.6
272.569
272.549
272.551
272.562
272.574
272.571
272.561
272.54
272.505
272.465
272.419
272.363
272.292
272.211
272.134
272.06
271.988
271.918
271.851
271.802
271.447
271.425
271.39
271.343
271.274
271.217
271.187
271.164
271.138
271.097
271.03
270.961
270.905
270.857
270.826
270.809
270.795
270.78
270.761
270.746
270.733
270.719
270.708
270.707
270.713
270.713
270.71
270.7
270.691
270.673
270.64
270.593
270.538
270.5
270.469
270.465
270.479
270.515
270.586
270.743
271.069
271.586
272.152
272.559
272.681
272.672
272.646
272.623
272.604
272.599
272.608
272.619
272.619
272.611
272.591
272.562
272.524
272.483
272.437
272.378
272.305
272.22
272.14
272.062
271.986
271.908
271.84
271.768
271.201
271.199
271.255
271.263
271.205
271.106
271.057
271.04
271.036
271.034
271.002
270.944
270.885
270.832
270.791
270.761
270.74
270.721
270.705
270.703
270.7
270.69
270.677
270.666
270.66
270.659
270.66
270.661
270.661
270.651
270.621
270.576
270.518
270.472
270.44
270.441
270.456
270.496
270.585
270.794
271.189
271.731
272.239
272.569
272.64
272.63
272.611
272.6
272.594
272.596
272.612
272.616
272.612
272.598
272.569
272.528
272.482
272.435
272.385
272.326
272.254
272.171
272.091
272.013
271.936
271.853
271.785
271.696
270.542
270.575
270.677
270.728
270.715
270.649
270.585
270.58
270.596
270.645
270.671
270.666
270.644
270.616
270.58
270.54
270.509
270.495
270.499
270.517
270.537
270.545
270.538
270.518
270.486
270.471
270.473
270.482
270.484
270.473
270.452
270.428
270.393
270.356
270.338
270.347
270.374
270.429
270.546
270.786
271.212
271.757
272.198
272.469
272.51
272.503
272.496
272.495
272.5
272.516
272.535
272.533
272.523
272.5
272.461
272.406
272.351
272.298
272.248
272.195
272.132
272.059
271.988
271.915
271.842
271.771
271.708
271.601
269.748
269.741
269.891
269.981
269.998
269.97
269.932
269.93
269.96
270.012
270.057
270.076
270.091
270.108
270.106
270.095
270.075
270.057
270.059
270.087
270.126
270.159
270.171
270.169
270.152
270.138
270.137
270.143
270.147
270.139
270.131
270.129
270.124
270.117
270.117
270.139
270.174
270.238
270.381
270.674
271.147
271.683
272.055
272.249
272.294
272.311
272.311
272.314
272.32
272.33
272.343
272.339
272.325
272.294
272.249
272.19
272.13
272.079
272.036
271.993
271.943
271.88
271.817
271.752
271.683
271.615
271.554
271.433
269.136
269.252
269.428
269.489
269.463
269.415
269.409
269.427
269.477
269.515
269.528
269.535
269.55
269.593
269.629
269.64
269.645
269.636
269.631
269.653
269.693
269.736
269.768
269.775
269.766
269.751
269.749
269.755
269.77
269.779
269.788
269.796
269.802
269.808
269.825
269.863
269.911
269.996
270.18
270.539
271.058
271.554
271.856
271.995
272.048
272.077
272.084
272.092
272.092
272.094
272.091
272.081
272.059
272.022
271.975
271.923
271.87
271.822
271.784
271.747
271.705
271.654
271.596
271.538
271.475
271.41
271.347
271.224
269
269.392
269.426
269.252
269.142
269.122
269.174
269.258
269.329
269.324
269.286
269.254
269.249
269.285
269.351
269.395
269.409
269.4
269.381
269.388
269.42
269.471
269.513
269.527
269.52
269.492
269.471
269.471
269.484
269.506
269.523
269.536
269.549
269.565
269.597
269.645
269.714
269.825
270.06
270.471
271.002
271.443
271.683
271.784
271.832
271.863
271.886
271.895
271.885
271.87
271.85
271.827
271.8
271.765
271.726
271.685
271.639
271.59
271.546
271.506
271.468
271.428
271.383
271.332
271.279
271.216
271.149
271.034
269.319
269.724
269.534
269.194
269.063
269.087
269.169
269.302
269.384
269.374
269.29
269.19
269.17
269.188
269.27
269.349
269.366
269.352
269.313
269.302
269.314
269.359
269.397
269.407
269.397
269.359
269.33
269.331
269.347
269.374
269.394
269.405
269.424
269.447
269.476
269.529
269.619
269.766
270.05
270.504
271.023
271.401
271.589
271.666
271.705
271.73
271.755
271.752
271.732
271.705
271.676
271.648
271.618
271.59
271.561
271.529
271.486
271.435
271.378
271.326
271.283
271.247
271.212
271.17
271.127
271.069
271
270.9
269.563
270.006
269.482
269.227
269.113
269.138
269.24
269.429
269.497
269.468
269.357
269.247
269.218
269.231
269.303
269.357
269.368
269.349
269.302
269.293
269.305
269.337
269.357
269.361
269.353
269.315
269.3
269.306
269.33
269.363
269.383
269.391
269.405
269.426
269.453
269.51
269.611
269.785
270.108
270.597
271.083
271.396
271.54
271.6
271.633
271.658
271.682
271.676
271.655
271.625
271.593
271.562
271.532
271.506
271.483
271.455
271.416
271.365
271.303
271.241
271.188
271.15
271.119
271.083
271.041
270.98
270.901
270.805
261.561
269.329
269.327
269.46
269.197
269.121
269.247
269.525
269.564
269.522
269.407
269.323
269.324
269.349
269.405
269.424
269.42
269.375
269.327
269.325
269.34
269.378
269.391
269.391
269.365
269.334
269.327
269.343
269.383
269.422
269.438
269.43
269.418
269.424
269.449
269.509
269.628
269.843
270.224
270.736
271.196
271.434
271.532
271.58
271.617
271.645
271.672
271.665
271.645
271.612
271.574
271.538
271.506
271.482
271.462
271.435
271.4
271.351
271.291
271.225
271.162
271.118
271.082
271.043
270.994
270.926
270.836
270.745
221.238
261.012
269.561
270.286
269.107
269.086
269.304
269.606
269.611
269.518
269.412
269.41
269.429
269.503
269.555
269.558
269.517
269.43
269.384
269.387
269.421
269.459
269.468
269.464
269.426
269.404
269.401
269.422
269.473
269.51
269.523
269.505
269.459
269.439
269.451
269.505
269.647
269.928
270.365
270.897
271.302
271.48
271.546
271.586
271.632
271.678
271.703
271.695
271.67
271.628
271.58
271.537
271.505
271.482
271.465
271.445
271.415
271.364
271.297
271.22
271.15
271.1
271.06
271.018
270.967
270.897
270.801
270.719
183.138
218.964
260.177
268.417
268.769
269.163
269.71
269.839
269.695
269.516
269.444
269.473
269.519
269.619
269.674
269.669
269.604
269.488
269.444
269.455
269.503
269.55
269.559
269.55
269.508
269.475
269.466
269.49
269.55
269.59
269.601
269.586
269.525
269.469
269.471
269.526
269.693
270.043
270.545
271.092
271.437
271.568
271.605
271.627
271.656
271.707
271.733
271.722
271.693
271.641
271.579
271.533
271.506
271.491
271.478
271.465
271.44
271.384
271.306
271.221
271.145
271.09
271.046
271.003
270.951
270.883
270.788
270.713
180.012
182.482
218.933
260.62
269.055
269.557
270.089
269.874
269.599
269.478
269.478
269.497
269.547
269.664
269.721
269.703
269.631
269.53
269.501
269.521
269.569
269.61
269.614
269.603
269.56
269.512
269.499
269.511
269.572
269.635
269.652
269.642
269.594
269.518
269.504
269.57
269.768
270.183
270.753
271.299
271.59
271.679
271.688
271.689
271.698
271.73
271.759
271.752
271.725
271.673
271.608
271.556
271.523
271.507
271.498
271.486
271.456
271.388
271.305
271.219
271.138
271.077
271.029
270.983
270.931
270.867
270.778
270.711
180
180.009
182.637
217.897
257.884
268.267
270.344
269.364
269.183
269.465
269.505
269.47
269.509
269.616
269.694
269.678
269.625
269.56
269.527
269.54
269.575
269.615
269.622
269.611
269.57
269.522
269.51
269.513
269.547
269.613
269.657
269.659
269.631
269.579
269.558
269.629
269.865
270.338
270.963
271.494
271.736
271.778
271.768
271.751
271.744
271.76
271.779
271.776
271.753
271.708
271.648
271.595
271.559
271.541
271.53
271.511
271.472
271.397
271.301
271.207
271.122
271.054
271.002
270.955
270.907
270.846
270.761
270.71
180
180
180.01
182.247
215.269
258.617
269.361
268.584
269.307
269.669
269.586
269.433
269.53
269.62
269.646
269.614
269.589
269.564
269.532
269.524
269.536
269.559
269.574
269.575
269.555
269.532
269.523
269.523
269.539
269.573
269.617
269.642
269.637
269.618
269.621
269.701
269.98
270.508
271.16
271.653
271.845
271.852
271.836
271.8
271.775
271.778
271.791
271.788
271.777
271.745
271.693
271.641
271.6
271.569
271.544
271.517
271.473
271.395
271.292
271.192
271.105
271.032
270.977
270.934
270.893
270.838
270.754
270.706
180
180
180
180.007
181.825
213.299
256.84
267.799
270.324
270.217
269.731
269.551
269.76
269.742
269.63
269.554
269.556
269.558
269.544
269.516
269.5
269.495
269.491
269.502
269.527
269.538
269.546
269.545
269.546
269.559
269.577
269.607
269.628
269.638
269.67
269.78
270.115
270.69
271.323
271.758
271.882
271.883
271.872
271.84
271.8
271.792
271.804
271.805
271.798
271.778
271.739
271.687
271.638
271.594
271.553
271.514
271.462
271.382
271.278
271.178
271.089
271.016
270.963
270.925
270.89
270.841
270.761
270.705
180
180
180
180
180.005
181.539
209.836
253.58
269.987
270.226
269.319
269.81
270.078
269.758
269.574
269.516
269.531
269.554
269.545
269.509
269.47
269.439
269.427
269.444
269.504
269.553
269.577
269.577
269.556
269.557
269.558
269.57
269.61
269.652
269.712
269.874
270.276
270.887
271.454
271.792
271.873
271.874
271.87
271.852
271.815
271.802
271.815
271.823
271.819
271.804
271.773
271.721
271.662
271.607
271.555
271.503
271.442
271.362
271.261
271.165
271.077
271.006
270.955
270.919
270.888
270.846
270.777
270.704
180
180
180
180
180
180.004
181.044
207.539
254.346
267.706
268.619
270.415
270.132
269.462
269.468
269.501
269.564
269.558
269.547
269.539
269.496
269.442
269.414
269.436
269.507
269.581
269.611
269.61
269.566
269.535
269.533
269.539
269.582
269.661
269.76
269.99
270.471
271.091
271.549
271.766
271.827
271.833
271.836
271.832
271.815
271.803
271.811
271.83
271.829
271.816
271.785
271.732
271.664
271.6
271.543
271.486
271.421
271.341
271.245
271.153
271.067
270.999
270.954
270.921
270.893
270.854
270.79
270.699
180
180
180
180
180
180
180.002
180.924
204.627
250.071
267.825
271.148
269.795
268.892
269.382
269.563
269.56
269.574
269.573
269.574
269.565
269.54
269.504
269.501
269.543
269.604
269.629
269.617
269.572
269.508
269.484
269.497
269.544
269.653
269.816
270.131
270.693
271.277
271.598
271.725
271.759
271.767
271.772
271.773
271.776
271.78
271.789
271.821
271.821
271.806
271.774
271.723
271.652
271.582
271.519
271.455
271.386
271.306
271.223
271.145
271.07
271.007
270.966
270.933
270.903
270.861
270.795
270.686
180
180
180
180
180
180
180
180.002
180.601
201.061
247.02
269.214
268.172
269.121
269.7
269.658
269.582
269.521
269.506
269.53
269.573
269.583
269.577
269.577
269.585
269.601
269.603
269.577
269.535
269.473
269.426
269.442
269.5
269.629
269.863
270.277
270.9
271.402
271.611
271.671
271.686
271.695
271.704
271.706
271.707
271.724
271.756
271.796
271.794
271.777
271.746
271.691
271.614
271.537
271.461
271.391
271.325
271.258
271.192
271.123
271.06
271.009
270.969
270.935
270.903
270.857
270.786
270.667
180
180
180
180
180
180
180
180
180.001
180.423
196.894
244.501
264.387
270.661
270.202
269.619
269.469
269.309
269.31
269.424
269.554
269.604
269.607
269.595
269.574
269.56
269.539
269.505
269.477
269.444
269.403
269.408
269.48
269.627
269.914
270.421
271.057
271.441
271.597
271.619
271.633
271.638
271.645
271.647
271.649
271.674
271.722
271.762
271.756
271.736
271.704
271.637
271.552
271.471
271.393
271.32
271.26
271.202
271.143
271.088
271.04
270.997
270.956
270.921
270.886
270.832
270.751
270.629
180
180
180
180
180
180
180
180
180
180.001
180.26
193.646
236.578
266.6
269.321
269.044
269.217
269.135
269.166
269.326
269.473
269.543
269.575
269.569
269.543
269.491
269.463
269.459
269.441
269.436
269.418
269.42
269.506
269.672
270.012
270.582
271.179
271.432
271.562
271.6
271.607
271.618
271.628
271.628
271.63
271.656
271.708
271.74
271.731
271.707
271.66
271.58
271.494
271.417
271.347
271.279
271.222
271.163
271.098
271.039
271.003
270.971
270.93
270.894
270.854
270.792
270.701
270.574
180
180
180
180
180
180
180
180
180
180
180
180.15
189.739
233.379
263.542
268.503
269.454
269.152
269.225
269.374
269.39
269.439
269.516
269.537
269.518
269.457
269.436
269.442
269.441
269.445
269.441
269.459
269.568
269.777
270.17
270.767
271.273
271.428
271.549
271.609
271.618
271.632
271.638
271.629
271.625
271.652
271.711
271.735
271.723
271.687
271.624
271.536
271.452
271.384
271.328
271.27
271.215
271.152
271.076
270.999
270.949
270.918
270.881
270.846
270.805
270.74
270.642
270.517
180
180
180
180
180
180
180
180
180
180
180
180
180.085
186.827
227.62
261.537
269.723
269.357
269.466
269.443
269.364
269.445
269.519
269.54
269.52
269.458
269.431
269.41
269.406
269.433
269.455
269.519
269.654
269.901
270.349
270.949
271.315
271.433
271.554
271.643
271.677
271.684
271.678
271.656
271.646
271.677
271.736
271.748
271.733
271.684
271.603
271.511
271.433
271.379
271.336
271.285
271.224
271.157
271.072
270.978
270.899
270.848
270.808
270.775
270.737
270.676
270.581
270.467
180
180
180
180
180
180
180
180
180
180
180
180
180
180.043
184.827
219.921
260.181
267.473
269.05
269.294
269.426
269.607
269.558
269.522
269.492
269.466
269.437
269.377
269.383
269.408
269.436
269.556
269.727
270.019
270.504
271.043
271.313
271.441
271.585
271.705
271.753
271.751
271.723
271.684
271.671
271.699
271.764
271.775
271.75
271.688
271.594
271.5
271.434
271.393
271.363
271.323
271.258
271.172
271.074
270.968
270.87
270.8
270.75
270.714
270.674
270.62
270.529
270.426
180
180
180
180
180
180
180
180
180
180
180
180
180
180
180.024
182.544
215.627
254.571
269.629
269.788
269.823
269.697
269.533
269.507
269.479
269.474
269.472
269.442
269.457
269.464
269.492
269.626
269.816
270.14
270.647
271.124
271.313
271.451
271.616
271.764
271.814
271.809
271.77
271.713
271.698
271.713
271.748
271.762
271.732
271.663
271.579
271.495
271.442
271.419
271.4
271.368
271.306
271.209
271.087
270.964
270.856
270.775
270.721
270.681
270.637
270.584
270.499
270.392
180
180
180
180
180
180
180
180
180
180
180
180
180
180
180
180.009
181.693
206.556
252.626
266.874
269.301
269.598
269.465
269.581
269.56
269.499
269.528
269.585
269.647
269.658
269.675
269.766
269.933
270.267
270.789
271.216
271.366
271.494
271.653
271.798
271.842
271.831
271.791
271.746
271.735
271.745
271.75
271.738
271.693
271.615
271.527
271.473
271.446
271.432
271.417
271.387
271.328
271.234
271.107
270.971
270.853
270.766
270.708
270.665
270.619
270.566
270.481
270.37
180
180
180
180
180
180
180
180
180
180
180
180
180
180
180
180
180.004
180.729
201.2
243.994
267.686
270.029
269.783
269.72
269.566
269.509
269.538
269.615
269.698
269.754
269.808
269.883
270.026
270.367
270.908
271.297
271.454
271.587
271.723
271.825
271.852
271.833
271.802
271.771
271.767
271.773
271.765
271.734
271.664
271.57
271.479
271.437
271.431
271.423
271.41
271.38
271.321
271.231
271.113
270.983
270.865
270.774
270.709
270.655
270.602
270.548
270.468
270.363
180
180
180
180
180
180
180
180
180
180
180
180
180
180
180
180
180
180.001
180.395
194.133
239.244
263.169
269.162
269.756
269.433
269.306
269.424
269.543
269.64
269.714
269.773
269.873
270.047
270.442
271.016
271.399
271.588
271.733
271.83
271.85
271.841
271.813
271.791
271.789
271.802
271.802
271.784
271.731
271.649
271.55
271.463
271.421
271.411
271.397
271.379
271.351
271.296
271.212
271.104
270.989
270.882
270.789
270.714
270.648
270.585
270.524
270.449
270.359
180
180
180
180
180
180
180
180
180
180
180
180
180
180
180
180
180
180
180
180.17
189.413
228.824
262.657
269.283
269.017
269.344
269.392
269.341
269.428
269.533
269.682
269.83
270.052
270.512
271.105
271.457
271.677
271.823
271.865
271.854
271.811
271.778
271.771
271.784
271.816
271.829
271.815
271.754
271.659
271.553
271.47
271.431
271.41
271.385
271.355
271.307
271.236
271.154
271.073
270.986
270.893
270.803
270.72
270.642
270.569
270.498
270.425
270.347
180
180
180
180
180
180
180
180
180
180
180
180
180
180
180
180
180
180
180
180
180.07
185.283
220.073
258.404
268.366
269.996
269.621
269.242
269.326
269.416
269.613
269.805
270.095
270.622
271.186
271.489
271.707
271.822
271.823
271.785
271.722
271.7
271.71
271.751
271.811
271.839
271.828
271.773
271.683
271.587
271.514
271.466
271.428
271.393
271.352
271.292
271.208
271.109
271.027
270.96
270.9
270.818
270.728
270.639
270.559
270.481
270.402
270.332
180
180
180
180
180
180
180
180
180
180
180
180
180
180
180
180
180
180
180
180
180
180.028
182.381
212.281
252.038
269.479
269.561
269.385
269.341
269.423
269.676
269.845
270.214
270.812
271.31
271.575
271.729
271.795
271.784
271.719
271.647
271.64
271.661
271.716
271.781
271.818
271.817
271.775
271.696
271.617
271.556
271.508
271.464
271.421
271.37
271.303
271.214
271.11
271.018
270.948
270.894
270.832
270.742
270.648
270.563
270.482
270.398
270.329
180
180
180
180
180
180
180
180
180
180
180
180
180
180
180
180
180
180
180
180
180
180
180.007
181.258
201.825
246.936
265.323
269.773
269.666
269.512
269.743
269.938
270.402
271.05
271.434
271.663
271.764
271.798
271.783
271.723
271.666
271.659
271.691
271.752
271.808
271.814
271.802
271.767
271.704
271.648
271.601
271.554
271.508
271.463
271.414
271.352
271.271
271.163
271.052
270.962
270.89
270.829
270.759
270.675
270.601
270.532
270.449
270.381
180
180
180
180
180
180
180
180
180
180
180
180
180
180
180
180
180
180
180
180
180
180
180
180.003
180.44
194.632
235.576
264.89
269.165
269.311
269.763
270.114
270.589
271.181
271.52
271.744
271.864
271.893
271.879
271.837
271.785
271.767
271.795
271.868
271.883
271.864
271.825
271.765
271.702
271.659
271.618
271.577
271.539
271.506
271.475
271.428
271.364
271.272
271.154
271.031
270.933
270.861
270.803
270.746
270.685
270.634
270.563
270.505
180
180
180
180
180
180
180
180
180
180
180
180
180
180
180
180
180
180
180
180
180
180
180
180
180.001
180.169
188.264
226.136
259.177
268.886
270.161
270.184
270.673
271.178
271.553
271.77
271.916
271.987
272
272.003
271.986
271.965
271.989
272.042
272.034
272.002
271.934
271.836
271.752
271.702
271.666
271.629
271.588
271.544
271.513
271.491
271.452
271.391
271.299
271.173
271.046
270.958
270.899
270.851
270.804
270.761
270.699
270.654
180
180
180
180
180
180
180
180
180
180
180
180
180
180
180
180
180
180
180
180
180
180
180
180
180
180
180.059
183.791
215.026
255.659
267.234
269.475
270.902
271.444
271.549
271.638
271.758
271.933
272.081
272.15
272.186
272.162
272.168
272.195
272.188
272.157
272.097
272
271.897
271.846
271.82
271.792
271.748
271.683
271.627
271.592
271.561
271.519
271.456
271.361
271.238
271.129
271.066
271.023
270.982
270.942
270.877
270.834
180
180
180
180
180
180
180
180
180
180
180
180
180
180
180
180
180
180
180
180
180
180
180
180
180
180
180
180.016
181.628
204.849
244.333
268.697
272.051
272.028
271.601
271.583
271.664
271.955
272.214
272.314
272.33
272.276
272.248
272.261
272.267
272.255
272.218
272.148
272.068
272.037
272.028
272.013
271.974
271.891
271.794
271.737
271.706
271.676
271.628
271.556
271.459
271.353
271.276
271.235
271.195
271.154
271.083
271.033
180
180
180
180
180
180
180
180
180
180
180
180
180
180
180
180
180
180
180
180
180
180
180
180
180
180
180
180
180.004
180.542
194.281
237.802
266.862
270.983
271.615
271.775
272.026
272.374
272.619
272.623
272.538
272.381
272.335
272.347
272.374
272.379
272.357
272.287
272.216
272.214
272.223
272.222
272.196
272.114
271.987
271.89
271.844
271.815
271.781
271.731
271.661
271.567
271.474
271.419
271.37
271.323
271.251
271.196
180
180
180
180
180
180
180
180
180
180
180
180
180
180
180
180
180
180
180
180
180
180
180
180
180
180
180
180
180
180.001
180.178
188.281
228.207
262.636
272.72
272.877
272.746
272.912
272.904
272.887
272.744
272.517
272.496
272.517
272.613
272.633
272.601
272.504
272.401
272.386
272.395
272.395
272.374
272.303
272.175
272.047
271.984
271.952
271.925
271.884
271.816
271.723
271.623
271.547
271.482
271.427
271.357
271.296
180
180
180
180
180
180
180
180
180
180
180
180
180
180
180
180
180
180
180
180
180
180
180
180
180
180
180
180
180
180
180
180.056
184.301
216.05
260.686
270.327
272.326
272.747
272.859
272.87
272.786
272.693
272.678
272.76
272.893
272.889
272.815
272.685
272.563
272.523
272.512
272.513
272.49
272.425
272.313
272.18
272.095
272.052
272.016
271.972
271.907
271.819
271.72
271.63
271.55
271.482
271.409
271.334
180
180
180
180
180
180
180
180
180
180
180
180
180
180
180
180
180
180
180
180
180
180
180
180
180
180
180
180
180
180
180
180
180.018
181.6
209.803
252.361
272.905
273.805
273.694
273.269
272.856
272.853
272.893
273.008
273.069
273.009
272.896
272.759
272.66
272.615
272.586
272.583
272.556
272.487
272.387
272.264
272.169
272.117
272.07
272.018
271.949
271.864
271.768
271.676
271.588
271.508
271.425
271.333
180
180
180
180
180
180
180
180
180
180
180
180
180
180
180
180
180
180
180
180
180
180
180
180
180
180
180
180
180
180
180
180
180
180.004
180.848
199.903
246.965
269.272
273.514
273.667
273.308
273.307
273.246
273.215
273.175
273.077
272.954
272.82
272.736
272.685
272.649
272.626
272.584
272.512
272.421
272.314
272.222
272.156
272.092
272.024
271.946
271.863
271.778
271.694
271.613
271.527
271.427
271.312
180
180
180
180
180
180
180
180
180
180
180
180
180
180
180
180
180
180
180
180
180
180
180
180
180
180
180
180
180
180
180
180
180
180
180.001
180.322
192.643
236.675
266.349
273.408
273.737
273.585
273.324
273.206
273.188
273.099
273.013
272.89
272.823
272.774
272.718
272.663
272.593
272.516
272.43
272.339
272.251
272.164
272.08
271.993
271.901
271.816
271.744
271.669
271.588
271.501
271.396
271.27
180
180
180
180
180
180
180
180
180
180
180
180
180
180
180
180
180
180
180
180
180
180
180
180
180
180
180
180
180
180
180
180
180
180
180
180
180.116
187.302
223.947
264.719
272.301
273.205
273.027
273.185
273.202
273.132
273.008
272.924
272.883
272.849
272.776
272.679
272.577
272.497
272.426
272.353
272.266
272.166
272.057
271.942
271.838
271.755
271.689
271.619
271.536
271.447
271.348
271.224
180
180
180
180
180
180
180
180
180
180
180
180
180
180
180
180
180
180
180
180
180
180
180
180
180
180
180
180
180
180
180
180
180
180
180
180
180
180.045
183.088
215.996
258.726
271.654
273.533
273.519
273.274
273.046
272.911
272.842
272.836
272.817
272.748
272.669
272.568
272.468
272.387
272.306
272.226
272.125
272.019
271.909
271.799
271.71
271.635
271.561
271.475
271.381
271.282
271.164
180
180
180
180
180
180
180
180
180
180
180
180
180
180
180
180
180
180
180
180
180
180
180
180
180
180
180
180
180
180
180
180
180
180
180
180
180
180
180.012
181.456
206.46
248.499
271.848
273.227
273.003
272.845
272.853
272.816
272.775
272.772
272.71
272.63
272.519
272.401
272.304
272.212
272.133
272.043
271.947
271.858
271.772
271.694
271.61
271.516
271.416
271.314
271.214
271.104
180
180
180
180
180
180
180
180
180
180
180
180
180
180
180
180
180
180
180
180
180
180
180
180
180
180
180
180
180
180
180
180
180
180
180
180
180
180
180
180.003
180.591
194.785
241.551
266.603
272.874
273.258
273.215
272.918
272.753
272.727
272.676
272.585
272.493
272.363
272.232
272.122
272.03
271.941
271.865
271.794
271.729
271.66
271.575
271.469
271.362
271.256
271.156
271.052
180
180
180
180
180
180
180
180
180
180
180
180
180
180
180
180
180
180
180
180
180
180
180
180
180
180
180
180
180
180
180
180
180
180
180
180
180
180
180
180
180.001
180.169
189.115
226.825
263.203
273.003
272.921
272.704
272.611
272.574
272.562
272.535
272.474
272.368
272.235
272.111
271.984
271.881
271.802
271.742
271.679
271.605
271.521
271.413
271.308
271.209
271.114
271.007
180
180
180
180
180
180
180
180
180
180
180
180
180
180
180
180
180
180
180
180
180
180
180
180
180
180
180
180
180
180
180
180
180
180
180
180
180
180
180
180
180
180
180.065
183.742
214.171
258.441
270.907
272.824
272.76
272.507
272.393
272.423
272.399
272.318
272.193
272.062
271.952
271.87
271.789
271.705
271.622
271.527
271.44
271.341
271.252
271.171
271.087
270.973
180
180
180
180
180
180
180
180
180
180
180
180
180
180
180
180
180
180
180
180
180
180
180
180
180
180
180
180
180
180
180
180
180
180
180
180
180
180
180
180
180
180
180
180.015
181.309
205.072
246.069
270.504
272.653
272.158
272.196
272.258
272.246
272.163
272.001
271.898
271.845
271.812
271.774
271.683
271.553
271.427
271.33
271.253
271.187
271.129
271.059
270.937
180
180
180
180
180
180
180
180
180
180
180
180
180
180
180
180
180
180
180
180
180
180
180
180
180
180
180
180
180
180
180
180
180
180
180
180
180
180
180
180
180
180
180
180
180.003
180.52
192.851
234.803
264.429
271.763
273.023
272.742
272.33
271.943
271.747
271.721
271.745
271.738
271.706
271.608
271.441
271.298
271.206
271.151
271.106
271.061
270.998
270.869
180
180
180
180
180
180
180
180
180
180
180
180
180
180
180
180
180
180
180
180
180
180
180
180
180
180
180
180
180
180
180
180
180
180
180
180
180
180
180
180
180
180
180
180
180
180.001
180.123
185.86
220.236
256.803
271.968
272.547
272.062
271.705
271.713
271.8
271.789
271.755
271.665
271.515
271.34
271.203
271.115
271.058
271.012
270.96
270.885
270.752
180
180
180
180
180
180
180
180
180
180
180
180
180
180
180
180
180
180
180
180
180
180
180
180
180
180
180
180
180
180
180
180
180
180
180
180
180
180
180
180
180
180
180
180
180
180
180
180.031
182.118
204.566
249.567
268.067
271.629
272.055
272.026
272.03
271.939
271.816
271.644
271.461
271.301
271.164
271.062
270.982
270.917
270.844
270.755
270.62
180
180
180
180
180
180
180
180
180
180
180
180
180
180
180
180
180
180
180
180
180
180
180
180
180
180
180
180
180
180
180
180
180
180
180
180
180
180
180
180
180
180
180
180
180
180
180
180
180.006
180.534
194.734
234.192
263.427
271.541
272.256
271.922
271.634
271.469
271.369
271.261
271.183
271.095
271.008
270.924
270.845
270.752
270.651
270.517
180
180
180
180
180
180
180
180
180
180
180
180
180
180
180
180
180
180
180
180
180
180
180
180
180
180
180
180
180
180
180
180
180
180
180
180
180
180
180
180
180
180
180
180
180
180
180
180
180
180.001
180.16
186.111
216.407
257.893
269.735
271.46
271.311
271.013
271.064
271.057
271.056
271.016
270.92
270.833
270.749
270.652
270.555
270.427
180
180
180
180
180
180
180
180
180
180
180
180
180
180
180
180
180
180
180
180
180
180
180
180
180
180
180
180
180
180
180
180
180
180
180
180
180
180
180
180
180
180
180
180
180
180
180
180
180
180
180
180.032
181.565
204.496
242.626
267.778
271.746
271.141
271.183
271.187
271.074
270.968
270.853
270.727
270.626
270.522
270.433
270.324
180
180
180
180
180
180
180
180
180
180
180
180
180
180
180
180
180
180
180
180
180
180
180
180
180
180
180
180
180
180
180
180
180
180
180
180
180
180
180
180
180
180
180
180
180
180
180
180
180
180
180
180
180.004
180.491
190.639
227.768
259.279
269.725
271.744
271.695
271.155
270.996
270.806
270.612
270.488
270.383
270.312
270.219
180
180
180
180
180
180
180
180
180
180
180
180
180
180
180
180
180
180
180
180
180
180
180
180
180
180
180
180
180
180
180
180
180
180
180
180
180
180
180
180
180
180
180
180
180
180
180
180
180
180
180
180
180
180.001
180.086
183.582
210.023
248.528
268.054
270.113
270.32
270.691
270.776
270.597
270.425
270.321
270.24
270.146
180
180
180
180
180
180
180
180
180
180
180
180
180
180
180
180
180
180
180
180
180
180
180
180
180
180
180
180
180
180
180
180
180
180
180
180
180
180
180
180
180
180
180
180
180
180
180
180
180
180
180
180
180
180
180
180.013
180.888
194.643
233.27
259.93
270.533
271.502
271.385
270.712
270.346
270.197
270.118
270.032
180
180
180
180
180
180
180
180
180
180
180
180
180
180
180
180
180
180
180
180
180
180
180
180
180
180
180
180
180
180
180
180
180
180
180
180
180
180
180
180
180
180
180
180
180
180
180
180
180
180
180
180
180
180
180
180
180.001
180.16
185.574
212.929
252.258
267.052
269.956
269.94
269.968
269.89
269.894
269.906
180
180
180
180
180
180
180
180
180
180
180
180
180
180
180
180
180
180
180
180
180
180
180
180
180
180
180
180
180
180
180
180
180
180
180
180
180
180
180
180
180
180
180
180
180
180
180
180
180
180
180
180
180
180
180
180
180
180
180.029
181.187
197.788
234.504
261.654
270.354
270.558
270.033
269.957
269.972
180