/*--------------------------------*- C++ -*----------------------------------*\
| =========                 |                                                 |
| \\      /  F ield         | OpenFOAM: The Open Source CFD Toolbox           |
|  \\    /   O peration     | Version:  2306                                  |
|   \\  /    A nd           | Website:  www.openfoam.com                      |
|    \\/     M anipulation  |                                                 |
\*---------------------------------------------------------------------------*/
FoamFile
{
    version     2.0;
    format      ascii;
    arch        "LSB;label=32;scalar=64";
    class       volVectorField;
    location    "7e-05";
    object      U;
}
// * * * * * * * * * * * * * * * * * * * * * * * * * * * * * * * * * * * * * //

dimensions      [0 1 -1 0 0 0 0];

internalField   nonuniform List<vector> 
9032
(
(365.679 155.266 0)
(365.769 155.291 0)
(365.805 155.361 0)
(365.698 155.329 0)
(365.56 155.319 0)
(365.403 155.26 0)
(365.266 155.177 0)
(365.212 155.094 0)
(365.199 155.034 0)
(365.189 154.99 0)
(365.165 154.965 0)
(365.123 154.959 0)
(365.085 154.965 0)
(365.076 154.983 0)
(365.096 155.001 0)
(365.121 155.022 0)
(365.134 155.038 0)
(365.131 155.041 0)
(365.128 155.024 0)
(365.137 154.998 0)
(365.148 154.971 0)
(365.141 154.954 0)
(365.079 154.941 0)
(364.957 154.903 0)
(364.817 154.878 0)
(364.686 154.887 0)
(364.606 154.89 0)
(364.553 154.879 0)
(364.559 154.865 0)
(364.585 154.833 0)
(364.601 154.81 0)
(364.619 154.786 0)
(364.623 154.788 0)
(364.637 154.808 0)
(364.689 154.832 0)
(364.743 154.856 0)
(364.765 154.871 0)
(364.731 154.88 0)
(364.625 154.875 0)
(364.421 154.845 0)
(363.963 154.731 0)
(363.12 154.462 0)
(361.746 154.029 0)
(360.141 153.426 0)
(358.784 152.758 0)
(358.194 152.301 0)
(358.016 152.06 0)
(358.027 152.018 0)
(358.097 152.007 0)
(358.184 152.026 0)
(358.229 152.057 0)
(358.211 152.068 0)
(358.183 152.068 0)
(358.163 152.061 0)
(358.169 152.06 0)
(358.216 152.083 0)
(358.283 152.093 0)
(358.371 152.121 0)
(358.474 152.156 0)
(358.59 152.197 0)
(358.694 152.244 0)
(358.778 152.297 0)
(358.88 152.364 0)
(359.037 152.449 0)
(359.224 152.538 0)
(359.43 152.639 0)
(359.659 152.745 0)
(359.903 152.838 0)
(365.452 155.176 0)
(365.409 155.321 0)
(365.369 155.258 0)
(365.308 155.169 0)
(365.214 155.079 0)
(365.128 155.014 0)
(365.024 154.99 0)
(364.969 155.019 0)
(364.925 155.031 0)
(364.893 155.013 0)
(364.87 154.979 0)
(364.861 154.952 0)
(364.866 154.957 0)
(364.874 154.999 0)
(364.885 155.049 0)
(364.894 155.089 0)
(364.899 155.111 0)
(364.9 155.116 0)
(364.907 155.101 0)
(364.92 155.06 0)
(364.932 154.979 0)
(364.946 154.865 0)
(364.931 154.762 0)
(364.877 154.72 0)
(364.777 154.711 0)
(364.668 154.731 0)
(364.586 154.757 0)
(364.521 154.789 0)
(364.478 154.851 0)
(364.458 154.889 0)
(364.464 154.893 0)
(364.471 154.864 0)
(364.479 154.84 0)
(364.514 154.856 0)
(364.566 154.879 0)
(364.62 154.884 0)
(364.658 154.876 0)
(364.655 154.872 0)
(364.556 154.862 0)
(364.305 154.774 0)
(363.824 154.556 0)
(362.916 154.152 0)
(361.499 153.505 0)
(359.938 152.793 0)
(358.783 152.321 0)
(358.318 152.079 0)
(358.167 152.004 0)
(358.12 152.007 0)
(358.154 152.017 0)
(358.209 152.043 0)
(358.229 152.059 0)
(358.207 152.048 0)
(358.187 152.036 0)
(358.17 152.022 0)
(358.182 152.024 0)
(358.23 152.06 0)
(358.294 152.096 0)
(358.383 152.148 0)
(358.486 152.223 0)
(358.576 152.289 0)
(358.655 152.345 0)
(358.73 152.409 0)
(358.853 152.494 0)
(359.029 152.58 0)
(359.223 152.672 0)
(359.436 152.775 0)
(359.668 152.891 0)
(359.883 152.986 0)
(364.47 155.106 0)
(364.526 154.957 0)
(364.546 154.801 0)
(364.514 154.708 0)
(364.446 154.67 0)
(364.398 154.693 0)
(364.362 154.72 0)
(364.343 154.737 0)
(364.34 154.733 0)
(364.326 154.747 0)
(364.31 154.779 0)
(364.321 154.801 0)
(364.368 154.801 0)
(364.432 154.788 0)
(364.502 154.783 0)
(364.552 154.79 0)
(364.572 154.81 0)
(364.573 154.841 0)
(364.565 154.85 0)
(364.55 154.842 0)
(364.532 154.826 0)
(364.508 154.802 0)
(364.492 154.762 0)
(364.492 154.694 0)
(364.477 154.628 0)
(364.445 154.601 0)
(364.401 154.615 0)
(364.362 154.644 0)
(364.337 154.669 0)
(364.322 154.693 0)
(364.303 154.721 0)
(364.271 154.767 0)
(364.258 154.821 0)
(364.296 154.853 0)
(364.343 154.864 0)
(364.395 154.867 0)
(364.441 154.855 0)
(364.456 154.839 0)
(364.367 154.767 0)
(364.048 154.623 0)
(363.44 154.349 0)
(362.342 153.861 0)
(360.787 153.17 0)
(359.28 152.529 0)
(358.452 152.219 0)
(358.157 152.116 0)
(358.082 152.125 0)
(358.062 152.125 0)
(358.09 152.104 0)
(358.12 152.071 0)
(358.127 152.046 0)
(358.123 152.026 0)
(358.11 152.012 0)
(358.107 151.992 0)
(358.135 152.002 0)
(358.188 152.048 0)
(358.254 152.093 0)
(358.339 152.166 0)
(358.425 152.257 0)
(358.503 152.35 0)
(358.575 152.433 0)
(358.659 152.514 0)
(358.803 152.604 0)
(358.988 152.688 0)
(359.194 152.773 0)
(359.419 152.86 0)
(359.669 152.94 0)
(359.888 152.968 0)
(363.511 154.678 0)
(363.591 154.578 0)
(363.688 154.397 0)
(363.682 154.376 0)
(363.638 154.419 0)
(363.627 154.449 0)
(363.646 154.444 0)
(363.699 154.418 0)
(363.745 154.413 0)
(363.77 154.463 0)
(363.774 154.539 0)
(363.792 154.631 0)
(363.842 154.688 0)
(363.903 154.714 0)
(363.973 154.722 0)
(364.051 154.729 0)
(364.107 154.748 0)
(364.132 154.758 0)
(364.124 154.747 0)
(364.107 154.715 0)
(364.086 154.672 0)
(364.059 154.638 0)
(364.044 154.615 0)
(364.039 154.606 0)
(364.046 154.594 0)
(364.056 154.557 0)
(364.059 154.518 0)
(364.063 154.496 0)
(364.065 154.49 0)
(364.061 154.525 0)
(364.051 154.602 0)
(364.027 154.711 0)
(364.007 154.82 0)
(364.038 154.879 0)
(364.074 154.896 0)
(364.112 154.89 0)
(364.142 154.878 0)
(364.129 154.767 0)
(364.001 154.62 0)
(363.62 154.481 0)
(362.875 154.135 0)
(361.625 153.53 0)
(360.034 152.84 0)
(358.718 152.271 0)
(358.099 152.088 0)
(357.926 152.061 0)
(357.881 152.089 0)
(357.897 152.074 0)
(357.928 152.055 0)
(357.952 152.019 0)
(357.965 151.961 0)
(357.974 151.928 0)
(357.97 151.906 0)
(357.982 151.895 0)
(358.018 151.927 0)
(358.079 151.998 0)
(358.156 152.087 0)
(358.246 152.19 0)
(358.34 152.3 0)
(358.427 152.411 0)
(358.505 152.506 0)
(358.593 152.578 0)
(358.745 152.643 0)
(358.941 152.708 0)
(359.162 152.769 0)
(359.382 152.833 0)
(359.618 152.898 0)
(359.788 152.936 0)
(363.029 154.473 0)
(363.079 154.302 0)
(363.292 154.111 0)
(363.407 154.074 0)
(363.41 154.12 0)
(363.383 154.174 0)
(363.388 154.203 0)
(363.436 154.224 0)
(363.497 154.262 0)
(363.551 154.34 0)
(363.573 154.413 0)
(363.605 154.484 0)
(363.654 154.528 0)
(363.7 154.551 0)
(363.748 154.578 0)
(363.801 154.597 0)
(363.852 154.598 0)
(363.876 154.581 0)
(363.876 154.556 0)
(363.86 154.528 0)
(363.829 154.509 0)
(363.781 154.495 0)
(363.742 154.486 0)
(363.733 154.483 0)
(363.761 154.455 0)
(363.802 154.416 0)
(363.838 154.397 0)
(363.863 154.415 0)
(363.875 154.475 0)
(363.885 154.552 0)
(363.892 154.636 0)
(363.872 154.725 0)
(363.84 154.779 0)
(363.847 154.797 0)
(363.881 154.774 0)
(363.907 154.727 0)
(363.908 154.665 0)
(363.837 154.588 0)
(363.655 154.503 0)
(363.269 154.287 0)
(362.41 153.851 0)
(361.003 153.205 0)
(359.428 152.558 0)
(358.298 152.191 0)
(357.851 152.038 0)
(357.772 152.025 0)
(357.723 152.043 0)
(357.712 152.069 0)
(357.739 152.062 0)
(357.768 152.022 0)
(357.776 151.952 0)
(357.776 151.908 0)
(357.778 151.877 0)
(357.804 151.87 0)
(357.86 151.909 0)
(357.948 151.98 0)
(358.053 152.061 0)
(358.165 152.164 0)
(358.275 152.282 0)
(358.373 152.393 0)
(358.459 152.481 0)
(358.555 152.538 0)
(358.708 152.588 0)
(358.9 152.638 0)
(359.117 152.683 0)
(359.328 152.727 0)
(359.56 152.771 0)
(359.722 152.778 0)
(362.712 154.644 0)
(362.821 154.101 0)
(363.297 153.701 0)
(363.591 153.72 0)
(363.601 153.846 0)
(363.445 154.093 0)
(363.333 154.226 0)
(363.321 154.217 0)
(363.408 154.19 0)
(363.532 154.201 0)
(363.605 154.243 0)
(363.639 154.288 0)
(363.661 154.353 0)
(363.676 154.417 0)
(363.69 154.476 0)
(363.713 154.526 0)
(363.745 154.532 0)
(363.759 154.495 0)
(363.769 154.432 0)
(363.774 154.372 0)
(363.758 154.34 0)
(363.715 154.339 0)
(363.672 154.36 0)
(363.647 154.376 0)
(363.648 154.374 0)
(363.679 154.371 0)
(363.724 154.391 0)
(363.77 154.436 0)
(363.81 154.512 0)
(363.835 154.575 0)
(363.842 154.645 0)
(363.817 154.723 0)
(363.768 154.773 0)
(363.747 154.779 0)
(363.761 154.733 0)
(363.768 154.688 0)
(363.746 154.618 0)
(363.676 154.508 0)
(363.484 154.325 0)
(362.964 154.036 0)
(361.922 153.556 0)
(360.404 152.919 0)
(358.916 152.349 0)
(358.04 152.065 0)
(357.719 152 0)
(357.652 152.03 0)
(357.596 152.066 0)
(357.581 152.061 0)
(357.586 152.043 0)
(357.591 151.998 0)
(357.597 151.94 0)
(357.602 151.881 0)
(357.632 151.857 0)
(357.681 151.862 0)
(357.761 151.895 0)
(357.857 151.96 0)
(357.966 152.054 0)
(358.086 152.161 0)
(358.211 152.264 0)
(358.326 152.359 0)
(358.424 152.438 0)
(358.526 152.487 0)
(358.677 152.527 0)
(358.864 152.569 0)
(359.078 152.6 0)
(359.295 152.63 0)
(359.53 152.664 0)
(359.67 152.691 0)
(362.604 154.464 0)
(362.968 154.085 0)
(363.615 153.954 0)
(363.846 154.044 0)
(363.779 154.138 0)
(363.521 154.247 0)
(363.283 154.303 0)
(363.248 154.287 0)
(363.311 154.243 0)
(363.477 154.203 0)
(363.608 154.173 0)
(363.678 154.144 0)
(363.724 154.143 0)
(363.753 154.187 0)
(363.761 154.267 0)
(363.762 154.342 0)
(363.754 154.378 0)
(363.746 154.347 0)
(363.736 154.283 0)
(363.72 154.205 0)
(363.714 154.132 0)
(363.707 154.103 0)
(363.691 154.118 0)
(363.668 154.171 0)
(363.623 154.264 0)
(363.604 154.355 0)
(363.626 154.428 0)
(363.674 154.515 0)
(363.718 154.607 0)
(363.739 154.657 0)
(363.754 154.691 0)
(363.762 154.71 0)
(363.743 154.719 0)
(363.71 154.695 0)
(363.706 154.626 0)
(363.7 154.565 0)
(363.668 154.462 0)
(363.571 154.307 0)
(363.283 154.098 0)
(362.608 153.762 0)
(361.386 153.257 0)
(359.79 152.661 0)
(358.49 152.168 0)
(357.81 152.019 0)
(357.594 152.025 0)
(357.508 152.046 0)
(357.447 152.069 0)
(357.418 152.059 0)
(357.408 152.047 0)
(357.409 152.022 0)
(357.433 151.979 0)
(357.456 151.926 0)
(357.508 151.908 0)
(357.584 151.913 0)
(357.683 151.937 0)
(357.789 151.989 0)
(357.909 152.063 0)
(358.039 152.155 0)
(358.166 152.25 0)
(358.284 152.335 0)
(358.392 152.401 0)
(358.5 152.44 0)
(358.651 152.471 0)
(358.834 152.501 0)
(359.042 152.518 0)
(359.27 152.529 0)
(359.511 152.552 0)
(359.642 152.598 0)
(363.216 153.363 0)
(363.908 153.521 0)
(364.314 153.956 0)
(364.325 154.2 0)
(364.181 154.314 0)
(363.853 154.31 0)
(363.558 154.302 0)
(363.458 154.339 0)
(363.442 154.388 0)
(363.494 154.428 0)
(363.583 154.421 0)
(363.67 154.38 0)
(363.768 154.321 0)
(363.856 154.281 0)
(363.895 154.299 0)
(363.906 154.366 0)
(363.852 154.445 0)
(363.755 154.468 0)
(363.688 154.421 0)
(363.662 154.35 0)
(363.665 154.227 0)
(363.679 154.105 0)
(363.662 154.054 0)
(363.648 154.062 0)
(363.617 154.132 0)
(363.592 154.253 0)
(363.612 154.364 0)
(363.661 154.475 0)
(363.71 154.586 0)
(363.722 154.658 0)
(363.723 154.695 0)
(363.725 154.69 0)
(363.712 154.644 0)
(363.686 154.566 0)
(363.675 154.477 0)
(363.658 154.415 0)
(363.599 154.324 0)
(363.439 154.195 0)
(363.023 154 0)
(362.172 153.634 0)
(360.8 153.081 0)
(359.245 152.489 0)
(358.165 152.125 0)
(357.652 152.036 0)
(357.507 152.034 0)
(357.425 152.016 0)
(357.352 152.012 0)
(357.319 152.006 0)
(357.301 152.005 0)
(357.292 152.021 0)
(357.314 152.011 0)
(357.346 151.975 0)
(357.405 151.958 0)
(357.493 151.948 0)
(357.604 151.953 0)
(357.723 151.988 0)
(357.849 152.047 0)
(357.984 152.128 0)
(358.118 152.222 0)
(358.241 152.311 0)
(358.353 152.377 0)
(358.46 152.423 0)
(358.6 152.457 0)
(358.774 152.485 0)
(358.973 152.499 0)
(359.208 152.51 0)
(359.454 152.521 0)
(359.583 152.586 0)
(364.777 153.101 0)
(364.56 154.251 0)
(364.277 154.839 0)
(364.244 154.959 0)
(364.226 154.941 0)
(364.07 154.795 0)
(363.916 154.55 0)
(363.758 154.437 0)
(363.665 154.465 0)
(363.62 154.554 0)
(363.652 154.602 0)
(363.739 154.601 0)
(363.851 154.556 0)
(364.005 154.462 0)
(364.106 154.385 0)
(364.136 154.372 0)
(364.111 154.391 0)
(364.004 154.431 0)
(363.89 154.442 0)
(363.835 154.414 0)
(363.798 154.341 0)
(363.792 154.223 0)
(363.779 154.13 0)
(363.762 154.104 0)
(363.741 154.141 0)
(363.717 154.249 0)
(363.734 154.344 0)
(363.766 154.448 0)
(363.812 154.566 0)
(363.824 154.645 0)
(363.811 154.694 0)
(363.787 154.714 0)
(363.761 154.676 0)
(363.742 154.58 0)
(363.733 154.49 0)
(363.72 154.405 0)
(363.644 154.258 0)
(363.427 154.088 0)
(362.885 153.854 0)
(361.869 153.42 0)
(360.384 152.845 0)
(358.914 152.365 0)
(358.018 152.112 0)
(357.663 152.046 0)
(357.558 152.017 0)
(357.459 152.022 0)
(357.376 152.011 0)
(357.327 152.013 0)
(357.298 152.004 0)
(357.289 152.009 0)
(357.306 152.007 0)
(357.346 151.991 0)
(357.402 151.992 0)
(357.473 151.987 0)
(357.569 151.984 0)
(357.691 151.998 0)
(357.822 152.043 0)
(357.963 152.108 0)
(358.109 152.194 0)
(358.246 152.288 0)
(358.371 152.367 0)
(358.482 152.432 0)
(358.602 152.481 0)
(358.76 152.512 0)
(358.95 152.528 0)
(359.183 152.549 0)
(359.423 152.576 0)
(359.556 152.659 0)
(365.06 154.648 0)
(364.1 155.454 0)
(363.99 155.45 0)
(364.273 155.225 0)
(364.307 154.92 0)
(364.266 154.578 0)
(364.142 154.453 0)
(364.006 154.388 0)
(363.917 154.396 0)
(363.847 154.443 0)
(363.829 154.555 0)
(363.879 154.614 0)
(363.962 154.593 0)
(364.102 154.54 0)
(364.271 154.455 0)
(364.317 154.458 0)
(364.289 154.489 0)
(364.196 154.536 0)
(364.081 154.557 0)
(364.03 154.553 0)
(364.008 154.524 0)
(364.027 154.453 0)
(364.037 154.387 0)
(364.019 154.348 0)
(363.98 154.333 0)
(363.92 154.379 0)
(363.913 154.439 0)
(363.94 154.496 0)
(363.971 154.59 0)
(363.967 154.677 0)
(363.939 154.708 0)
(363.914 154.689 0)
(363.897 154.628 0)
(363.887 154.557 0)
(363.875 154.508 0)
(363.863 154.425 0)
(363.769 154.295 0)
(363.482 154.116 0)
(362.822 153.812 0)
(361.635 153.328 0)
(360.053 152.771 0)
(358.723 152.339 0)
(357.993 152.149 0)
(357.735 152.119 0)
(357.635 152.116 0)
(357.524 152.104 0)
(357.449 152.085 0)
(357.398 152.081 0)
(357.38 152.055 0)
(357.383 152.037 0)
(357.407 152.04 0)
(357.454 152.059 0)
(357.524 152.075 0)
(357.601 152.072 0)
(357.692 152.05 0)
(357.81 152.051 0)
(357.94 152.086 0)
(358.072 152.143 0)
(358.207 152.223 0)
(358.342 152.312 0)
(358.473 152.389 0)
(358.595 152.454 0)
(358.717 152.506 0)
(358.862 152.538 0)
(359.053 152.554 0)
(359.29 152.574 0)
(359.531 152.622 0)
(359.671 152.725 0)
(363.899 156.379 0)
(363.386 155.441 0)
(364.095 155.093 0)
(364.532 154.972 0)
(364.362 154.583 0)
(364.187 154.483 0)
(364.13 154.454 0)
(364.224 154.401 0)
(364.24 154.359 0)
(364.228 154.359 0)
(364.142 154.427 0)
(364.013 154.516 0)
(364.032 154.567 0)
(364.102 154.596 0)
(364.248 154.635 0)
(364.348 154.639 0)
(364.335 154.632 0)
(364.274 154.631 0)
(364.168 154.646 0)
(364.148 154.641 0)
(364.168 154.63 0)
(364.229 154.597 0)
(364.283 154.542 0)
(364.278 154.477 0)
(364.223 154.393 0)
(364.141 154.352 0)
(364.109 154.341 0)
(364.115 154.358 0)
(364.132 154.43 0)
(364.113 154.507 0)
(364.064 154.555 0)
(364.009 154.607 0)
(363.988 154.618 0)
(363.978 154.602 0)
(363.975 154.554 0)
(363.974 154.486 0)
(363.888 154.331 0)
(363.537 154.157 0)
(362.707 153.857 0)
(361.346 153.332 0)
(359.731 152.799 0)
(358.568 152.396 0)
(357.973 152.252 0)
(357.784 152.23 0)
(357.693 152.192 0)
(357.597 152.148 0)
(357.545 152.124 0)
(357.509 152.083 0)
(357.497 152.051 0)
(357.507 152.052 0)
(357.545 152.088 0)
(357.609 152.145 0)
(357.696 152.188 0)
(357.792 152.209 0)
(357.885 152.205 0)
(357.995 152.193 0)
(358.122 152.191 0)
(358.248 152.219 0)
(358.372 152.273 0)
(358.498 152.351 0)
(358.623 152.438 0)
(358.75 152.513 0)
(358.884 152.568 0)
(359.027 152.606 0)
(359.218 152.632 0)
(359.43 152.687 0)
(359.665 152.764 0)
(359.803 152.887 0)
(366.026 156.027 0)
(363.227 154.964 0)
(364.93 154.592 0)
(364.792 154.212 0)
(364.156 154.214 0)
(363.916 154.404 0)
(364.084 154.609 0)
(364.457 154.591 0)
(364.546 154.433 0)
(364.542 154.349 0)
(364.385 154.356 0)
(364.164 154.445 0)
(364.128 154.569 0)
(364.172 154.682 0)
(364.286 154.777 0)
(364.348 154.741 0)
(364.325 154.69 0)
(364.275 154.63 0)
(364.193 154.63 0)
(364.179 154.667 0)
(364.212 154.708 0)
(364.283 154.752 0)
(364.343 154.743 0)
(364.351 154.688 0)
(364.307 154.554 0)
(364.252 154.415 0)
(364.23 154.371 0)
(364.228 154.356 0)
(364.235 154.418 0)
(364.205 154.491 0)
(364.134 154.555 0)
(364.045 154.628 0)
(364.005 154.655 0)
(363.994 154.65 0)
(363.984 154.628 0)
(363.968 154.586 0)
(363.876 154.453 0)
(363.46 154.268 0)
(362.508 153.899 0)
(361.003 153.354 0)
(359.469 152.805 0)
(358.456 152.422 0)
(357.988 152.253 0)
(357.827 152.188 0)
(357.727 152.122 0)
(357.639 152.081 0)
(357.606 152.064 0)
(357.591 152.036 0)
(357.596 152.029 0)
(357.62 152.077 0)
(357.677 152.149 0)
(357.762 152.223 0)
(357.864 152.282 0)
(357.979 152.311 0)
(358.089 152.305 0)
(358.181 152.278 0)
(358.292 152.262 0)
(358.4 152.287 0)
(358.513 152.335 0)
(358.634 152.419 0)
(358.759 152.503 0)
(358.898 152.583 0)
(359.043 152.651 0)
(359.198 152.703 0)
(359.389 152.737 0)
(359.597 152.787 0)
(359.835 152.839 0)
(359.956 152.954 0)
(382.499 146.649 0)
(364.11 156.673 0)
(365.382 154.137 0)
(364.402 153.142 0)
(363.694 154.01 0)
(363.665 155.029 0)
(364.062 155.31 0)
(364.578 155.069 0)
(364.702 154.766 0)
(364.65 154.57 0)
(364.433 154.422 0)
(364.244 154.433 0)
(364.273 154.494 0)
(364.357 154.643 0)
(364.419 154.767 0)
(364.377 154.752 0)
(364.308 154.698 0)
(364.216 154.601 0)
(364.167 154.576 0)
(364.205 154.622 0)
(364.276 154.713 0)
(364.37 154.838 0)
(364.416 154.869 0)
(364.418 154.827 0)
(364.348 154.65 0)
(364.309 154.492 0)
(364.311 154.374 0)
(364.338 154.315 0)
(364.354 154.342 0)
(364.322 154.406 0)
(364.247 154.483 0)
(364.131 154.573 0)
(364.03 154.634 0)
(364.002 154.64 0)
(363.984 154.63 0)
(363.947 154.606 0)
(363.825 154.495 0)
(363.331 154.287 0)
(362.233 153.907 0)
(360.643 153.383 0)
(359.191 152.877 0)
(358.338 152.498 0)
(357.956 152.289 0)
(357.797 152.184 0)
(357.696 152.131 0)
(357.624 152.102 0)
(357.603 152.105 0)
(357.611 152.098 0)
(357.638 152.123 0)
(357.692 152.179 0)
(357.776 152.241 0)
(357.879 152.304 0)
(357.993 152.354 0)
(358.105 152.385 0)
(358.207 152.393 0)
(358.296 152.363 0)
(358.388 152.344 0)
(358.485 152.368 0)
(358.593 152.418 0)
(358.723 152.496 0)
(358.858 152.566 0)
(359.01 152.643 0)
(359.173 152.708 0)
(359.346 152.747 0)
(359.537 152.763 0)
(359.726 152.83 0)
(359.95 152.9 0)
(360.056 153.02 0)
(485.408 77.2425 0)
(395.657 144.805 0)
(369.673 151.943 0)
(363.724 152.641 0)
(363.001 154.949 0)
(363.338 155.393 0)
(364.071 155.52 0)
(364.71 155.082 0)
(364.834 154.94 0)
(364.715 154.88 0)
(364.369 154.594 0)
(364.276 154.382 0)
(364.345 154.355 0)
(364.502 154.49 0)
(364.523 154.641 0)
(364.441 154.666 0)
(364.306 154.632 0)
(364.139 154.53 0)
(364.11 154.488 0)
(364.185 154.532 0)
(364.316 154.653 0)
(364.448 154.821 0)
(364.496 154.875 0)
(364.486 154.848 0)
(364.408 154.712 0)
(364.355 154.567 0)
(364.341 154.429 0)
(364.391 154.355 0)
(364.436 154.367 0)
(364.407 154.41 0)
(364.348 154.451 0)
(364.233 154.508 0)
(364.073 154.596 0)
(363.998 154.643 0)
(363.968 154.659 0)
(363.9 154.654 0)
(363.73 154.527 0)
(363.139 154.299 0)
(361.876 153.907 0)
(360.226 153.401 0)
(358.943 152.873 0)
(358.238 152.525 0)
(357.889 152.315 0)
(357.714 152.21 0)
(357.63 152.156 0)
(357.604 152.132 0)
(357.603 152.142 0)
(357.634 152.151 0)
(357.678 152.188 0)
(357.732 152.252 0)
(357.814 152.312 0)
(357.931 152.364 0)
(358.061 152.411 0)
(358.182 152.445 0)
(358.295 152.443 0)
(358.396 152.413 0)
(358.475 152.399 0)
(358.558 152.411 0)
(358.661 152.438 0)
(358.795 152.48 0)
(358.939 152.548 0)
(359.099 152.634 0)
(359.267 152.715 0)
(359.442 152.777 0)
(359.631 152.812 0)
(359.818 152.886 0)
(360.055 152.949 0)
(360.179 153.044 0)
(573.421 6.01661 0)
(505.4 71.6927 0)
(382.823 146.688 0)
(359.335 155.723 0)
(362.375 155.553 0)
(363.735 155.302 0)
(364.523 154.49 0)
(364.99 154.564 0)
(365.094 154.925 0)
(364.751 155.114 0)
(364.249 154.666 0)
(364.16 154.33 0)
(364.304 154.21 0)
(364.502 154.347 0)
(364.542 154.533 0)
(364.488 154.584 0)
(364.371 154.53 0)
(364.162 154.407 0)
(364.097 154.373 0)
(364.17 154.429 0)
(364.318 154.581 0)
(364.491 154.783 0)
(364.536 154.887 0)
(364.531 154.894 0)
(364.457 154.816 0)
(364.384 154.688 0)
(364.354 154.534 0)
(364.399 154.41 0)
(364.469 154.367 0)
(364.449 154.39 0)
(364.401 154.418 0)
(364.319 154.446 0)
(364.154 154.522 0)
(364.009 154.614 0)
(363.949 154.657 0)
(363.837 154.661 0)
(363.57 154.554 0)
(362.877 154.29 0)
(361.481 153.88 0)
(359.895 153.381 0)
(358.752 152.884 0)
(358.153 152.574 0)
(357.829 152.365 0)
(357.63 152.274 0)
(357.538 152.225 0)
(357.547 152.218 0)
(357.583 152.23 0)
(357.634 152.243 0)
(357.697 152.283 0)
(357.75 152.341 0)
(357.82 152.396 0)
(357.939 152.447 0)
(358.083 152.497 0)
(358.221 152.534 0)
(358.335 152.543 0)
(358.435 152.525 0)
(358.522 152.503 0)
(358.598 152.488 0)
(358.709 152.483 0)
(358.845 152.489 0)
(359.001 152.553 0)
(359.176 152.647 0)
(359.359 152.742 0)
(359.547 152.821 0)
(359.743 152.864 0)
(359.934 152.931 0)
(360.173 152.979 0)
(360.296 153.047 0)
(579.97 0.0347383 0)
(575.383 4.89397 0)
(491.532 72.5734 0)
(398.857 138.447 0)
(368.053 153.369 0)
(365.519 155.126 0)
(364.557 153.631 0)
(365.274 154.085 0)
(365.453 155.562 0)
(364.564 155.504 0)
(363.975 154.84 0)
(363.971 154.337 0)
(364.166 154.206 0)
(364.384 154.309 0)
(364.477 154.469 0)
(364.488 154.5 0)
(364.414 154.456 0)
(364.206 154.355 0)
(364.115 154.348 0)
(364.172 154.417 0)
(364.326 154.588 0)
(364.502 154.796 0)
(364.561 154.906 0)
(364.564 154.934 0)
(364.504 154.895 0)
(364.427 154.794 0)
(364.375 154.669 0)
(364.361 154.54 0)
(364.408 154.444 0)
(364.442 154.397 0)
(364.415 154.39 0)
(364.361 154.392 0)
(364.246 154.432 0)
(364.078 154.53 0)
(363.942 154.623 0)
(363.775 154.659 0)
(363.391 154.553 0)
(362.53 154.259 0)
(361.033 153.825 0)
(359.528 153.331 0)
(358.59 152.898 0)
(358.1 152.618 0)
(357.782 152.422 0)
(357.572 152.341 0)
(357.466 152.304 0)
(357.46 152.319 0)
(357.536 152.327 0)
(357.613 152.323 0)
(357.703 152.347 0)
(357.785 152.388 0)
(357.867 152.443 0)
(357.978 152.503 0)
(358.105 152.562 0)
(358.227 152.614 0)
(358.337 152.65 0)
(358.44 152.657 0)
(358.539 152.63 0)
(358.628 152.587 0)
(358.748 152.563 0)
(358.898 152.545 0)
(359.063 152.597 0)
(359.256 152.694 0)
(359.458 152.8 0)
(359.659 152.89 0)
(359.854 152.937 0)
(360.031 152.984 0)
(360.252 153.009 0)
(360.37 153.048 0)
(580 1.2399e-05 0)
(579.978 0.0250214 0)
(574.455 5.12174 0)
(507.61 68.8012 0)
(380.752 147.086 0)
(365.035 155.267 0)
(363.415 152.594 0)
(365.138 154.801 0)
(364.65 155.996 0)
(363.882 155.671 0)
(363.665 155.028 0)
(363.968 154.545 0)
(364.092 154.428 0)
(364.138 154.4 0)
(364.321 154.433 0)
(364.407 154.457 0)
(364.409 154.446 0)
(364.259 154.403 0)
(364.151 154.459 0)
(364.192 154.546 0)
(364.322 154.689 0)
(364.486 154.836 0)
(364.566 154.913 0)
(364.595 154.94 0)
(364.567 154.919 0)
(364.478 154.837 0)
(364.39 154.757 0)
(364.306 154.673 0)
(364.274 154.576 0)
(364.316 154.474 0)
(364.35 154.399 0)
(364.333 154.377 0)
(364.284 154.383 0)
(364.164 154.444 0)
(363.962 154.566 0)
(363.72 154.633 0)
(363.171 154.516 0)
(362.075 154.184 0)
(360.551 153.718 0)
(359.203 153.226 0)
(358.469 152.873 0)
(358.07 152.634 0)
(357.775 152.449 0)
(357.546 152.375 0)
(357.423 152.355 0)
(357.405 152.364 0)
(357.469 152.37 0)
(357.57 152.347 0)
(357.684 152.35 0)
(357.793 152.393 0)
(357.898 152.453 0)
(358.018 152.533 0)
(358.139 152.609 0)
(358.251 152.682 0)
(358.359 152.736 0)
(358.47 152.755 0)
(358.576 152.719 0)
(358.662 152.66 0)
(358.771 152.635 0)
(358.935 152.636 0)
(359.115 152.681 0)
(359.325 152.78 0)
(359.544 152.892 0)
(359.754 152.989 0)
(359.94 153.04 0)
(360.086 153.072 0)
(360.268 153.062 0)
(360.412 153.077 0)
(580 4.259e-09 0)
(580 1.0515e-05 0)
(579.976 0.0266671 0)
(575.496 4.72034 0)
(505.738 63.8747 0)
(398.611 137.036 0)
(364.37 152.36 0)
(364.295 157.609 0)
(363.361 156.574 0)
(363.637 155.172 0)
(364.542 154.915 0)
(364.535 154.937 0)
(364.135 154.719 0)
(363.91 154.42 0)
(364.054 154.396 0)
(364.241 154.442 0)
(364.316 154.473 0)
(364.279 154.495 0)
(364.206 154.613 0)
(364.222 154.773 0)
(364.303 154.892 0)
(364.407 154.973 0)
(364.503 155.003 0)
(364.576 154.979 0)
(364.583 154.938 0)
(364.511 154.88 0)
(364.378 154.803 0)
(364.239 154.729 0)
(364.143 154.662 0)
(364.109 154.575 0)
(364.168 154.473 0)
(364.239 154.403 0)
(364.243 154.392 0)
(364.186 154.412 0)
(363.981 154.494 0)
(363.636 154.572 0)
(362.893 154.42 0)
(361.553 154.032 0)
(359.989 153.56 0)
(358.908 153.05 0)
(358.381 152.783 0)
(358.074 152.601 0)
(357.812 152.441 0)
(357.575 152.366 0)
(357.422 152.352 0)
(357.379 152.363 0)
(357.418 152.363 0)
(357.5 152.361 0)
(357.625 152.361 0)
(357.761 152.392 0)
(357.89 152.454 0)
(358.016 152.533 0)
(358.132 152.616 0)
(358.24 152.694 0)
(358.351 152.749 0)
(358.471 152.774 0)
(358.588 152.754 0)
(358.688 152.708 0)
(358.804 152.68 0)
(358.979 152.703 0)
(359.182 152.776 0)
(359.402 152.873 0)
(359.625 152.981 0)
(359.83 153.076 0)
(360.002 153.131 0)
(360.128 153.153 0)
(360.283 153.124 0)
(360.428 153.16 0)
(580 1.11019e-12 0)
(580 3.81921e-09 0)
(580 1.00544e-05 0)
(579.981 0.0207184 0)
(576.453 3.62732 0)
(505.739 61.6263 0)
(404.256 134.494 0)
(368.945 155.243 0)
(364.776 155.551 0)
(365.096 155.263 0)
(365.984 155.676 0)
(365.093 155.458 0)
(364.167 154.461 0)
(363.973 154.09 0)
(364.012 154.146 0)
(364.181 154.345 0)
(364.227 154.46 0)
(364.22 154.594 0)
(364.219 154.745 0)
(364.246 154.919 0)
(364.294 155.042 0)
(364.349 155.09 0)
(364.403 155.102 0)
(364.485 155.072 0)
(364.54 154.993 0)
(364.482 154.921 0)
(364.357 154.839 0)
(364.174 154.743 0)
(364.024 154.648 0)
(363.958 154.587 0)
(363.974 154.524 0)
(364.084 154.465 0)
(364.182 154.439 0)
(364.141 154.431 0)
(363.952 154.458 0)
(363.497 154.482 0)
(362.536 154.265 0)
(360.976 153.805 0)
(359.397 153.336 0)
(358.617 152.894 0)
(358.279 152.694 0)
(358.07 152.57 0)
(357.861 152.439 0)
(357.628 152.383 0)
(357.435 152.377 0)
(357.35 152.383 0)
(357.363 152.381 0)
(357.424 152.375 0)
(357.537 152.361 0)
(357.691 152.359 0)
(357.849 152.402 0)
(357.98 152.475 0)
(358.099 152.559 0)
(358.21 152.643 0)
(358.322 152.711 0)
(358.457 152.743 0)
(358.595 152.746 0)
(358.726 152.721 0)
(358.865 152.702 0)
(359.054 152.747 0)
(359.266 152.831 0)
(359.487 152.927 0)
(359.699 153.035 0)
(359.882 153.138 0)
(360.041 153.207 0)
(360.168 153.235 0)
(360.303 153.207 0)
(360.424 153.27 0)
(580 -1.28332e-13 0)
(580 4.23715e-13 0)
(580 3.10583e-09 0)
(580 7.15754e-06 0)
(579.988 0.0137741 0)
(576.58 3.21921 0)
(525.31 52.4237 0)
(391.755 137.392 0)
(367.83 149.82 0)
(365.929 155.17 0)
(365.831 156.779 0)
(364.443 155.442 0)
(363.785 153.785 0)
(364.259 153.69 0)
(364.358 154.121 0)
(364.178 154.319 0)
(364.047 154.444 0)
(364.024 154.614 0)
(364.084 154.731 0)
(364.176 154.858 0)
(364.236 154.964 0)
(364.273 155.049 0)
(364.319 155.091 0)
(364.377 155.108 0)
(364.458 155.065 0)
(364.437 154.964 0)
(364.332 154.87 0)
(364.164 154.753 0)
(363.958 154.655 0)
(363.881 154.59 0)
(363.877 154.547 0)
(363.959 154.514 0)
(364.096 154.477 0)
(364.092 154.453 0)
(363.87 154.428 0)
(363.283 154.379 0)
(362.084 154.08 0)
(360.334 153.558 0)
(358.849 153.114 0)
(358.333 152.838 0)
(358.179 152.691 0)
(358.048 152.602 0)
(357.889 152.496 0)
(357.686 152.438 0)
(357.469 152.427 0)
(357.327 152.434 0)
(357.307 152.427 0)
(357.351 152.409 0)
(357.441 152.361 0)
(357.578 152.318 0)
(357.739 152.317 0)
(357.889 152.37 0)
(358.024 152.452 0)
(358.161 152.548 0)
(358.301 152.633 0)
(358.444 152.7 0)
(358.61 152.728 0)
(358.775 152.722 0)
(358.934 152.718 0)
(359.132 152.777 0)
(359.341 152.864 0)
(359.55 152.96 0)
(359.747 153.075 0)
(359.915 153.193 0)
(360.076 153.273 0)
(360.21 153.318 0)
(360.339 153.297 0)
(360.429 153.378 0)
(580 1.00291e-13 0)
(580 1.49773e-13 0)
(580 8.72189e-13 0)
(580 1.97301e-09 0)
(580 4.84462e-06 0)
(579.99 0.0105883 0)
(577.846 2.40926 0)
(521.325 47.8438 0)
(410.26 129.202 0)
(364.193 158.901 0)
(364.628 159.053 0)
(362.879 153.864 0)
(363.651 153.027 0)
(365.049 154.478 0)
(364.505 154.62 0)
(363.89 154.573 0)
(363.727 154.57 0)
(363.803 154.572 0)
(363.933 154.547 0)
(364.106 154.555 0)
(364.206 154.637 0)
(364.231 154.806 0)
(364.226 155.008 0)
(364.278 155.094 0)
(364.368 155.067 0)
(364.406 154.943 0)
(364.34 154.822 0)
(364.218 154.683 0)
(364.022 154.596 0)
(363.891 154.58 0)
(363.885 154.572 0)
(363.923 154.567 0)
(364.015 154.536 0)
(364.031 154.478 0)
(363.753 154.405 0)
(362.998 154.255 0)
(361.56 153.858 0)
(359.679 153.318 0)
(358.41 152.992 0)
(358.106 152.869 0)
(358.067 152.785 0)
(357.987 152.711 0)
(357.87 152.634 0)
(357.706 152.564 0)
(357.517 152.518 0)
(357.34 152.494 0)
(357.259 152.456 0)
(357.284 152.416 0)
(357.349 152.343 0)
(357.467 152.262 0)
(357.632 152.228 0)
(357.802 152.27 0)
(357.954 152.363 0)
(358.11 152.475 0)
(358.272 152.589 0)
(358.443 152.674 0)
(358.631 152.719 0)
(358.818 152.72 0)
(358.996 152.72 0)
(359.197 152.783 0)
(359.403 152.872 0)
(359.598 152.978 0)
(359.792 153.113 0)
(359.964 153.237 0)
(360.137 153.316 0)
(360.286 153.381 0)
(360.425 153.377 0)
(360.475 153.468 0)
(580 2.88915e-13 0)
(580 5.23342e-13 0)
(580 5.02815e-13 0)
(580 1.03755e-12 0)
(580 1.37308e-09 0)
(580 3.70675e-06 0)
(579.994 0.00569345 0)
(577.93 2.12997 0)
(534.234 42.3431 0)
(408.187 128.858 0)
(374.198 153.229 0)
(363.865 152.405 0)
(365.063 154.896 0)
(364.884 155.498 0)
(363.626 154.886 0)
(363.397 154.318 0)
(363.622 154.385 0)
(363.787 154.405 0)
(363.966 154.336 0)
(364.162 154.268 0)
(364.255 154.265 0)
(364.25 154.376 0)
(364.204 154.655 0)
(364.219 154.868 0)
(364.271 154.905 0)
(364.367 154.803 0)
(364.389 154.667 0)
(364.342 154.548 0)
(364.204 154.518 0)
(364.03 154.596 0)
(363.964 154.657 0)
(363.952 154.673 0)
(363.963 154.64 0)
(363.948 154.532 0)
(363.619 154.378 0)
(362.662 154.118 0)
(361.029 153.609 0)
(359.126 153.129 0)
(358.151 152.968 0)
(357.981 152.934 0)
(357.958 152.92 0)
(357.9 152.857 0)