/*--------------------------------*- C++ -*----------------------------------*\
| =========                 |                                                 |
| \\      /  F ield         | OpenFOAM: The Open Source CFD Toolbox           |
|  \\    /   O peration     | Version:  2306                                  |
|   \\  /    A nd           | Website:  www.openfoam.com                      |
|    \\/     M anipulation  |                                                 |
\*---------------------------------------------------------------------------*/
FoamFile
{
    version     2.0;
    format      ascii;
    arch        "LSB;label=32;scalar=64";
    class       volVectorField;
    location    "9e-05";
    object      U;
}
// * * * * * * * * * * * * * * * * * * * * * * * * * * * * * * * * * * * * * //

dimensions      [0 1 -1 0 0 0 0];

internalField   nonuniform List<vector> 
8941
(
(580 -3.10598e-14 0)
(580 6.96006e-14 0)
(580 2.24597e-13 0)
(580 4.12087e-13 0)
(580 3.76238e-13 0)
(580 1.82828e-13 0)
(580 5.01355e-14 0)
(580 -2.62191e-14 0)
(580 2.87037e-14 0)
(580 -1.43899e-14 0)
(580 -3.00233e-13 0)
(580 -2.79932e-13 0)
(580 -2.34672e-13 0)
(580 3.04631e-13 0)
(580 4.04229e-13 0)
(580 3.71706e-13 0)
(580 3.56971e-13 0)
(580 2.33547e-13 0)
(580 3.1163e-13 0)
(580 2.82943e-13 0)
(580 -1.02129e-13 0)
(580 -1.04549e-13 0)
(580 -2.48385e-13 0)
(580 -2.16099e-13 0)
(580 -2.98147e-13 0)
(580 -5.73452e-13 0)
(580 -3.48363e-13 0)
(580 -2.37577e-13 0)
(580 -1.73734e-13 0)
(580 -4.21613e-13 0)
(580 -3.79431e-13 0)
(580 -6.18312e-13 0)
(580 -7.76117e-13 0)
(580 -7.46045e-13 0)
(580 -4.22937e-13 0)
(580 -4.94445e-13 0)
(580 -3.551e-13 0)
(580 -1.05149e-13 0)
(580 5.50564e-14 0)
(580 -1.11178e-14 0)
(580 -3.38601e-13 0)
(580 -2.1289e-13 0)
(580 -1.49702e-13 0)
(580 -1.11352e-13 0)
(580 6.91072e-14 0)
(580 -1.36338e-14 0)
(580 3.84039e-14 0)
(580 -1.6423e-13 0)
(580 1.51265e-15 0)
(580 1.64832e-13 0)
(580 6.47294e-13 0)
(580 4.02282e-13 0)
(580 3.74853e-13 0)
(580 1.15888e-13 0)
(580 1.56401e-13 0)
(580 3.5359e-13 0)
(580 5.97963e-13 0)
(580 7.50657e-13 0)
(580 1.12327e-12 0)
(580 1.05001e-12 0)
(580 6.30375e-13 0)
(580 7.64209e-13 0)
(580 8.34117e-13 0)
(580 5.2359e-13 0)
(580 3.08475e-13 0)
(580 1.14759e-13 0)
(580 -7.71885e-14 0)
(580 -1.42692e-13 0)
(580 -1.69344e-13 0)
(580 -3.43796e-13 0)
(580 -2.20719e-13 0)
(580 -3.02417e-13 0)
(580 -2.6942e-13 0)
(580 1.22498e-13 0)
(580 1.73691e-13 0)
(580 6.44616e-14 0)
(580 -6.52553e-14 0)
(580 1.02703e-13 0)
(580 -1.47347e-14 0)
(580 -1.52998e-13 0)
(580 -7.85716e-14 0)
(580 -1.03121e-13 0)
(580 -6.04506e-14 0)
(580 3.0924e-15 0)
(580 1.15844e-13 0)
(580 6.92801e-14 0)
(580 1.89658e-15 0)
(580 -1.95112e-13 0)
(580 -2.77399e-13 0)
(580 -2.30067e-13 0)
(580 -3.41081e-13 0)
(580 -3.26945e-13 0)
(580 6.66605e-14 0)
(580 2.73836e-13 0)
(580 2.90212e-13 0)
(580 2.4397e-13 0)
(580 2.66915e-13 0)
(580 1.88859e-13 0)
(580 3.28209e-13 0)
(580 5.4993e-13 0)
(580 8.96312e-14 0)
(580 -1.4785e-13 0)
(580 -4.09513e-13 0)
(580 -3.20241e-13 0)
(580 -5.53752e-14 0)
(580 -2.1169e-13 0)
(580 -1.55552e-13 0)
(580 -2.46419e-13 0)
(580 -5.20942e-13 0)
(580 -6.57487e-13 0)
(580 -2.93012e-13 0)
(580 -2.05851e-13 0)
(580 -4.41368e-13 0)
(580 -4.46782e-13 0)
(580 2.19846e-13 0)
(580 3.88008e-13 0)
(580 6.45912e-13 0)
(580 6.04529e-13 0)
(580 6.00198e-13 0)
(580 2.0779e-13 0)
(580 -2.37218e-13 0)
(580 -1.12871e-13 0)
(580 -2.13701e-13 0)
(580 -2.23495e-14 0)
(580 4.42254e-13 0)
(580 7.3916e-13 0)
(580 8.69132e-13 0)
(580 1.92534e-13 0)
(580 2.71714e-13 0)
(580 4.92206e-13 0)
(580 6.61132e-13 0)
(580 2.44458e-13 0)
(580 2.51296e-13 0)
(580 3.88838e-13 0)
(580 6.31172e-13 0)
(580 8.73072e-13 0)
(580 1.50327e-12 0)
(580 1.46767e-12 0)
(580 1.44805e-12 0)
(580 1.24598e-12 0)
(580 1.00188e-12 0)
(580 1.70062e-12 0)
(580 1.73987e-12 0)
(580 1.16277e-12 0)
(580 8.08911e-13 0)
(580 5.7238e-13 0)
(580 -1.14683e-13 0)
(580 -5.05974e-13 0)
(580 -8.00868e-13 0)
(580 -8.93604e-13 0)
(580 -4.85685e-13 0)
(580 -1.8831e-13 0)
(580 1.30237e-13 0)
(580 4.26164e-13 0)
(580 4.23943e-13 0)
(580 3.29047e-13 0)
(580 1.5151e-13 0)
(580 2.74928e-13 0)
(580 2.81555e-13 0)
(580 2.73814e-13 0)
(580 -9.74486e-14 0)
(580 -5.62893e-13 0)
(580 -9.59924e-13 0)
(580 -8.04566e-13 0)
(580 -8.98338e-14 0)
(580 2.64773e-13 0)
(580 2.11885e-13 0)
(580 5.76326e-14 0)
(580 1.23715e-14 0)
(580 5.8881e-14 0)
(580 4.49556e-13 0)
(580 5.31071e-13 0)
(580 5.0464e-13 0)
(580 3.66867e-13 0)
(580 9.32938e-14 0)
(580 1.71527e-13 0)
(580 2.85458e-13 0)
(580 8.94651e-14 0)
(580 2.20128e-14 0)
(580 5.4326e-14 0)
(580 -7.074e-14 0)
(580 -3.15736e-13 0)
(580 -6.29668e-13 0)
(580 -7.67823e-13 0)
(580 -5.41363e-13 0)
(580 -3.2928e-13 0)
(580 -6.13233e-13 0)
(580 -1.06633e-12 0)
(580 -1.00832e-12 0)
(580 -5.79033e-13 0)
(580 -3.81317e-13 0)
(580 -3.34051e-13 0)
(580 -1.6429e-13 0)
(580 -3.04295e-13 0)
(580 -8.12709e-14 0)
(580 1.11722e-13 0)
(580 7.99293e-14 0)
(580 -7.17759e-14 0)
(580 -9.03834e-14 0)
(580 2.63887e-13 0)
(580 7.36296e-13 0)
(580 3.96795e-13 0)
(580 5.38112e-13 0)
(580 4.38619e-13 0)
(580 2.18984e-13 0)
(580 4.4994e-13 0)
(580 6.16647e-13 0)
(580 2.19499e-13 0)
(580 6.32832e-14 0)
(580 1.16517e-13 0)
(580 1.14697e-13 0)
(580 6.02655e-14 0)
(580 2.04607e-13 0)
(580 5.92936e-13 0)
(580 6.45603e-13 0)
(580 8.52207e-13 0)
(580 1.15633e-12 0)
(580 1.17289e-12 0)
(580 1.19203e-12 0)
(580 1.32282e-12 0)
(580 1.48935e-12 0)
(580 1.56099e-12 0)
(580 1.4033e-12 0)
(580 1.27281e-12 0)
(580 1.17302e-12 0)
(580 1.34045e-12 0)
(580 4.49478e-13 0)
(580 -1.48348e-13 0)
(580 -5.29395e-13 0)
(580 -4.45778e-13 0)
(580 -5.36514e-13 0)
(580 -4.03844e-13 0)
(580 1.70566e-13 0)
(580 1.35915e-13 0)
(580 1.07798e-13 0)
(580 2.83392e-13 0)
(580 2.73729e-13 0)
(580 3.20706e-13 0)
(580 5.55056e-13 0)
(580 6.4654e-13 0)
(580 -1.44195e-13 0)
(580 -1.31595e-13 0)
(580 -4.56552e-13 0)
(580 -1.99929e-13 0)
(580 2.7334e-14 0)
(580 -1.24648e-13 0)
(580 1.76873e-14 0)
(580 2.28433e-13 0)
(580 4.08716e-13 0)
(580 4.60743e-13 0)
(580 6.01816e-13 0)
(580 5.6811e-13 0)
(580 3.42381e-13 0)
(580 1.91539e-13 0)
(580 6.34469e-14 0)
(580 -1.24431e-13 0)
(580 -2.53242e-13 0)
(580 -3.21406e-13 0)
(580 -5.89807e-13 0)
(580 -1.08701e-12 0)
(580 -1.2601e-12 0)
(580 -1.3579e-12 0)
(580 -1.29381e-12 0)
(580 -8.02803e-13 0)
(580 -1.05926e-12 0)
(580 -1.18186e-12 0)
(580 -1.61659e-12 0)
(580 -1.79152e-12 0)
(580 -1.53227e-12 0)
(580 -1.22535e-12 0)
(580 -1.17409e-12 0)
(580 -9.53808e-13 0)
(580 -4.99588e-13 0)
(580 -4.05253e-13 0)
(580 2.15097e-14 0)
(580 1.70906e-13 0)
(580 1.29223e-13 0)
(580 2.20601e-14 0)
(580 -1.2754e-13 0)
(580 2.52698e-13 0)
(580 9.33891e-13 0)
(580 7.81935e-13 0)
(580 4.62679e-13 0)
(580 3.28103e-13 0)
(580 3.87323e-13 0)
(580 2.58828e-13 0)
(580 5.92583e-14 0)
(580 4.40355e-13 0)
(580 5.94602e-13 0)
(580 5.87504e-13 0)
(580 6.004e-13 0)
(580 5.06503e-13 0)
(580 5.87869e-13 0)
(580 5.14404e-13 0)
(580 6.08076e-13 0)
(580 8.7698e-13 0)
(580 9.34012e-13 0)
(580 9.9863e-13 0)
(580 1.41002e-12 0)
(580 1.43536e-12 0)
(580 1.48663e-12 0)
(580 1.38161e-12 0)
(580 9.76843e-13 0)
(580 9.08669e-13 0)
(580 8.48294e-13 0)
(580 9.4478e-13 0)
(580 8.74261e-13 0)
(580 7.05072e-13 0)
(580 3.75394e-13 0)
(580 4.06483e-13 0)
(580 1.5479e-13 0)
(580 -1.29866e-14 0)
(580 2.41049e-13 0)
(580 3.39029e-13 0)
(580 2.06542e-13 0)
(580 3.51728e-14 0)
(580 -4.30081e-15 0)
(580 1.29141e-13 0)
(580 4.33641e-13 0)
(580 1.31442e-13 0)
(580 9.38035e-14 0)
(580 1.09298e-13 0)
(580 2.70046e-13 0)
(580 2.49495e-13 0)
(580 -5.32989e-14 0)
(580 -3.56583e-13 0)
(580 -3.96496e-13 0)
(580 -3.10251e-13 0)
(580 -6.99418e-14 0)
(580 1.42258e-13 0)
(580 1.89554e-13 0)
(580 1.35592e-13 0)
(580 -7.37055e-14 0)
(580 -7.91287e-14 0)
(580 -1.49178e-13 0)
(580 -4.83462e-13 0)
(580 -5.75484e-13 0)
(580 -4.90248e-13 0)
(580 -5.65037e-13 0)
(580 -7.97911e-13 0)
(580 -9.6332e-13 0)
(580 -1.0417e-12 0)
(580 -8.28655e-13 0)
(580 -6.60248e-13 0)
(580 -7.15407e-13 0)
(580 -1.02409e-12 0)
(580 -1.33511e-12 0)
(580 -1.38321e-12 0)
(580 -1.46783e-12 0)
(580 -1.48873e-12 0)
(580 -1.43005e-12 0)
(580 -1.11337e-12 0)
(580 -4.10809e-13 0)
(580 -2.80439e-13 0)
(580 4.97219e-14 0)
(580 8.07297e-14 0)
(580 1.77932e-13 0)
(580 2.70449e-13 0)
(580 9.55867e-14 0)
(580 3.30072e-13 0)
(580 6.31811e-13 0)
(580 7.41909e-13 0)
(580 5.75643e-13 0)
(580 5.16788e-13 0)
(580 4.32907e-13 0)
(580 2.93563e-14 0)
(580 -1.99794e-14 0)
(580 3.9326e-13 0)
(580 7.89565e-13 0)
(580 8.41261e-13 0)
(580 1.11139e-12 0)
(580 1.25398e-12 0)
(580 1.48009e-12 0)
(580 1.53743e-12 0)
(580 1.63525e-12 0)
(580 1.49586e-12 0)
(580 1.46194e-12 0)
(580 1.37836e-12 0)
(580 1.62389e-12 0)
(580 1.8274e-12 0)
(580 1.8366e-12 0)
(580 1.39047e-12 0)
(580 1.19019e-12 0)
(580 1.06599e-12 0)
(580 5.87284e-13 0)
(580 4.1981e-13 0)
(580 8.13766e-13 0)
(580 1.08464e-12 0)
(580 9.84079e-13 0)
(580 4.4277e-13 0)
(580 7.37775e-13 0)
(580 6.32731e-13 0)
(580 5.46023e-13 0)
(580 6.80892e-13 0)
(580 7.01963e-13 0)
(580 5.76767e-13 0)
(580 5.74746e-13 0)
(580 4.9094e-13 0)
(580 6.79074e-13 0)
(580 -2.38429e-13 0)
(580 5.54876e-14 0)
(580 1.12176e-13 0)
(580 1.46467e-13 0)
(580 -2.68621e-13 0)
(580 -3.17342e-13 0)
(580 -4.98269e-13 0)
(580 -6.90978e-13 0)
(580 -6.23309e-13 0)
(580 -4.31904e-13 0)
(580 -3.9355e-13 0)
(580 -4.27063e-13 0)
(580 -4.67674e-13 0)
(580 -5.25581e-13 0)
(580 -5.0032e-13 0)
(580 -3.95532e-13 0)
(580 -3.56355e-13 0)
(580 -2.97603e-13 0)
(580 -4.66957e-13 0)
(580 -4.83278e-13 0)
(580 -3.53447e-13 0)
(580 -2.17595e-13 0)
(580 -1.24335e-13 0)
(580 -2.63175e-13 0)
(580 -5.11032e-13 0)
(580 -4.54866e-13 0)
(580 -5.40918e-13 0)
(580 -6.69605e-13 0)
(580 -6.47013e-13 0)
(580 -7.96595e-13 0)
(580 -9.02354e-13 0)
(580 -1.11386e-12 0)
(580 -1.09747e-12 0)
(580 -7.88322e-13 0)
(580 -4.19424e-13 0)
(580 -4.21619e-13 0)
(580 -3.58881e-13 0)
(580 -3.79488e-13 0)
(580 -9.01621e-15 0)
(580 2.04781e-13 0)
(580 2.36827e-13 0)
(580 2.522e-13 0)
(580 4.43446e-13 0)
(580 5.14984e-13 0)
(580 9.93867e-13 0)
(580 1.15902e-12 0)
(580 9.56322e-13 0)
(580 7.38652e-13 0)
(580 5.76229e-13 0)
(580 7.15604e-13 0)
(580 7.17711e-13 0)
(580 1.17165e-12 0)
(580 2.02603e-12 0)
(580 2.13403e-12 0)
(580 2.17319e-12 0)
(580 2.19735e-12 0)
(580 1.73668e-12 0)
(580 1.56951e-12 0)
(580 1.72685e-12 0)
(580 2.02057e-12 0)
(580 2.04445e-12 0)
(580 1.7322e-12 0)
(580 1.96953e-12 0)
(580 2.03461e-12 0)
(580 1.84918e-12 0)
(580 1.39258e-12 0)
(580 1.14353e-12 0)
(580 1.1727e-12 0)
(580 1.01745e-12 0)
(580 6.21427e-13 0)
(580 2.56234e-13 0)
(580 9.25026e-13 0)
(580 1.07577e-12 0)
(580 9.61816e-13 0)
(580 8.83302e-13 0)
(580 1.05111e-12 0)
(580 1.09206e-12 0)
(580 1.18725e-12 0)
(580 9.23586e-13 0)
(580 6.84657e-13 0)
(580 -2.54874e-13 0)
(580 -1.36182e-13 0)
(580 -1.55673e-13 0)
(580 -2.86251e-13 0)
(580 -6.10713e-13 0)
(580 -7.0686e-13 0)
(580 -6.97489e-13 0)
(580 -6.25607e-13 0)
(580 -4.96321e-13 0)
(580 -3.69678e-13 0)
(580 -4.54707e-13 0)
(580 -6.26292e-13 0)
(580 -5.33579e-13 0)
(580 -5.74635e-13 0)
(580 -6.51228e-13 0)
(580 -4.69225e-13 0)
(580 -2.06978e-13 0)
(580 -2.3138e-13 0)
(580 -2.5139e-13 0)
(580 -3.27449e-13 0)
(580 -2.88725e-13 0)
(580 -4.2751e-13 0)
(580 -5.87055e-13 0)
(580 -6.63701e-13 0)
(580 -7.5458e-13 0)
(580 -7.52894e-13 0)
(580 -6.86309e-13 0)
(580 -4.82344e-13 0)
(580 -4.20781e-13 0)
(580 -5.33194e-13 0)
(580 -8.76459e-13 0)
(580 -9.77857e-13 0)
(580 -8.78077e-13 0)
(580 -9.07341e-13 0)
(580 -5.95273e-13 0)
(580 -6.25167e-13 0)
(580 -4.59552e-13 0)
(580 2.66515e-14 0)
(580 3.16904e-13 0)
(580 4.27155e-13 0)
(580 5.79818e-13 0)
(580 8.11884e-13 0)
(580 7.21055e-13 0)
(580 9.22194e-13 0)
(580 1.0629e-12 0)
(580 1.13498e-12 0)
(580 7.86235e-13 0)
(580 7.57335e-13 0)
(580 4.50031e-13 0)
(580 6.44967e-13 0)
(580 7.56363e-13 0)
(580 1.392e-12 0)
(580 1.71728e-12 0)
(580 1.96322e-12 0)
(580 2.06548e-12 0)
(580 1.97184e-12 0)
(580 1.61305e-12 0)
(580 1.33723e-12 0)
(580 1.55902e-12 0)
(580 1.84376e-12 0)
(580 1.51305e-12 0)
(580 1.38259e-12 0)
(580 1.9929e-12 0)
(580 2.07158e-12 0)
(580 1.92358e-12 0)
(580 2.07009e-12 0)
(580 1.74291e-12 0)
(580 1.65245e-12 0)
(580 1.57291e-12 0)
(580 1.38954e-12 0)
(580 1.5368e-12 0)
(580 1.34474e-12 0)
(580 1.35252e-12 0)
(580 9.48069e-13 0)
(580 7.09603e-13 0)
(580 7.55456e-13 0)
(580 7.22553e-13 0)
(580 6.09351e-13 0)
(580 2.90096e-13 0)
(580 1.96442e-13 0)
(580 -4.72676e-13 0)
(580 5.41515e-14 0)
(580 -1.61402e-13 0)
(580 -3.61246e-13 0)
(580 -4.22848e-13 0)
(580 -6.65672e-13 0)
(580 -8.10669e-13 0)
(580 -6.22599e-13 0)
(580 -4.93473e-13 0)
(580 -6.19584e-13 0)
(580 -5.32037e-13 0)
(580 -5.09551e-13 0)
(580 -4.29788e-13 0)
(580 -4.96615e-13 0)
(580 -7.10387e-13 0)
(580 -7.91664e-13 0)
(580 -7.56509e-13 0)
(580 -6.34087e-13 0)
(580 -1.72609e-13 0)
(580 -3.35497e-13 0)
(580 -7.53394e-13 0)
(580 -9.32637e-13 0)
(580 -9.51945e-13 0)
(580 -7.97516e-13 0)
(580 -9.95696e-13 0)
(580 -1.44597e-12 0)
(580 -1.37657e-12 0)
(580 -9.79185e-13 0)
(580 -8.31645e-13 0)
(580 -7.73138e-13 0)
(580 -8.52972e-13 0)
(580 -8.91164e-13 0)
(580 -8.54931e-13 0)
(580 -6.68376e-13 0)
(580 -4.37442e-13 0)
(580 -3.84696e-13 0)
(580 -3.15931e-13 0)
(580 -4.47605e-14 0)
(580 1.20663e-13 0)
(580 5.29348e-13 0)
(580 7.62431e-13 0)
(580 4.62825e-13 0)
(580 6.55453e-13 0)
(580 5.9111e-13 0)
(580 2.62222e-13 0)
(580 4.095e-15 0)
(580 1.71548e-14 0)
(580 1.7932e-13 0)
(580 3.13179e-13 0)
(580 8.95012e-13 0)
(580 1.41008e-12 0)
(580 1.36335e-12 0)
(580 1.40542e-12 0)
(580 1.65037e-12 0)
(580 1.66939e-12 0)
(580 1.59125e-12 0)
(580 1.57179e-12 0)
(580 1.28059e-12 0)
(580 1.01184e-12 0)
(580 1.1896e-12 0)
(580 1.06155e-12 0)
(580 1.06377e-12 0)
(580 1.25305e-12 0)
(580 1.33158e-12 0)
(580 1.45437e-12 0)
(580 1.77662e-12 0)
(580 1.46852e-12 0)
(580 1.35071e-12 0)
(580 1.40588e-12 0)
(580 1.76285e-12 0)
(580 2.33837e-12 0)
(580 1.71292e-12 0)
(580 8.96158e-13 0)
(580 5.37875e-13 0)
(580 5.77911e-13 0)
(580 7.11353e-13 0)
(580 5.78418e-13 0)
(580 3.8596e-13 0)
(580 6.60544e-14 0)
(580 1.34545e-13 0)
(580 -4.06447e-13 0)
(580 7.1612e-14 0)
(580 1.94371e-13 0)
(580 8.73882e-14 0)
(580 -9.07531e-14 0)
(580 -1.83606e-13 0)
(580 -3.98337e-13 0)
(580 -3.44978e-13 0)
(580 -3.66422e-13 0)
(580 -4.56103e-13 0)
(580 -4.63745e-13 0)
(580 -6.3848e-13 0)
(580 -8.62037e-13 0)
(580 -8.69695e-13 0)
(580 -5.56622e-13 0)
(580 -5.84056e-13 0)
(580 -5.64253e-13 0)
(580 -4.68974e-13 0)
(580 -6.40722e-13 0)
(580 -1.00774e-12 0)
(580 -1.16418e-12 0)
(580 -1.31185e-12 0)
(580 -1.26259e-12 0)
(580 -1.14938e-12 0)
(580 -1.11792e-12 0)
(580 -1.19478e-12 0)
(580 -1.11335e-12 0)
(580 -8.48931e-13 0)
(580 -8.07525e-13 0)
(580 -5.84127e-13 0)
(580 -5.54032e-13 0)
(580 -4.71324e-13 0)
(580 -5.02691e-13 0)
(580 -5.51717e-13 0)
(580 -3.56571e-13 0)
(580 -2.08368e-13 0)
(580 -2.2348e-14 0)
(580 1.88273e-14 0)
(580 1.02773e-13 0)
(580 5.07518e-13 0)
(580 6.53541e-13 0)
(580 5.54758e-14 0)
(580 2.47966e-14 0)
(580 -1.22343e-13 0)
(580 -1.09029e-13 0)
(580 -5.38004e-14 0)
(580 1.09481e-13 0)
(580 5.96625e-13 0)
(580 7.40895e-13 0)
(580 1.0534e-12 0)
(580 1.20471e-12 0)
(580 1.06386e-12 0)
(580 1.09916e-12 0)
(580 1.27538e-12 0)
(580 1.15466e-12 0)
(580 1.21209e-12 0)
(580 1.38505e-12 0)
(580 1.34819e-12 0)
(580 9.20856e-13 0)
(580 5.31991e-13 0)
(580 5.95271e-13 0)
(580 6.53739e-13 0)
(580 7.59019e-13 0)
(580 1.01122e-12 0)
(580 1.16183e-12 0)
(580 9.71856e-13 0)
(580 1.30796e-12 0)
(580 1.21094e-12 0)
(580 1.3222e-12 0)
(580 1.88781e-12 0)
(580 2.00551e-12 0)
(580 1.65693e-12 0)
(580 1.3806e-12 0)
(580 1.30507e-12 0)
(580 1.11163e-12 0)
(580 9.09496e-13 0)
(580 8.53847e-13 0)
(580 8.83811e-13 0)
(580 7.24161e-13 0)
(580 2.75482e-13 0)
(580 2.93123e-13 0)
(580 6.08479e-14 0)
(580 1.57735e-13 0)
(580 2.51448e-13 0)
(580 3.41692e-14 0)
(580 -2.30324e-13 0)
(580 -2.0323e-13 0)
(580 -2.31549e-13 0)
(580 -3.61968e-13 0)
(580 -2.15762e-13 0)
(580 -1.56875e-13 0)
(580 -5.20458e-14 0)
(580 -2.259e-13 0)
(580 -1.05429e-14 0)
(580 6.88821e-14 0)
(580 -8.4952e-15 0)
(580 -5.2069e-14 0)
(580 -7.1705e-14 0)
(580 -7.15216e-13 0)
(580 -9.89089e-13 0)
(580 -9.22841e-13 0)
(580 -8.27302e-13 0)
(580 -8.91993e-13 0)
(580 -7.24244e-13 0)
(580 -5.8298e-13 0)
(580 -4.17204e-13 0)
(580 -4.39355e-13 0)
(580 -4.58309e-13 0)
(580 -4.12966e-13 0)
(580 -3.187e-13 0)
(580 -6.57182e-14 0)
(580 -1.1636e-13 0)
(580 -2.04032e-14 0)
(580 -2.26742e-14 0)
(580 3.63055e-14 0)
(580 9.62844e-14 0)
(580 -8.58427e-16 0)
(580 -1.5982e-13 0)
(580 -7.00502e-14 0)
(580 3.22902e-14 0)
(580 7.76578e-14 0)
(580 1.21493e-13 0)
(580 -2.91037e-14 0)
(580 2.83345e-14 0)
(580 2.87251e-13 0)
(580 4.10507e-13 0)
(580 3.43045e-13 0)
(580 6.57234e-13 0)
(580 8.68114e-13 0)
(580 1.04247e-12 0)
(580 1.02774e-12 0)
(580 1.24133e-12 0)
(580 1.06397e-12 0)
(580 5.22712e-13 0)
(580 1.71691e-13 0)
(580 3.61293e-13 0)
(580 3.32801e-13 0)
(580 4.95841e-13 0)
(580 5.30188e-13 0)
(580 3.66382e-13 0)
(580 2.84898e-13 0)
(580 3.53783e-13 0)
(580 5.6601e-13 0)
(580 7.14616e-13 0)
(580 1.17513e-12 0)
(580 1.41246e-12 0)
(580 1.87925e-12 0)
(580 1.7737e-12 0)
(580 1.82617e-12 0)
(580 2.02226e-12 0)
(580 1.93699e-12 0)
(580 1.72066e-12 0)
(580 1.63589e-12 0)
(580 1.54317e-12 0)
(580 1.19397e-12 0)
(580 6.74077e-13 0)
(580 6.49286e-13 0)
(580 5.76742e-13 0)
(580 6.16186e-13 0)
(580 -1.18845e-13 0)
(580 -2.90253e-13 0)
(580 5.47245e-14 0)
(580 -1.17565e-14 0)
(580 9.18541e-14 0)
(580 8.92765e-14 0)
(580 -1.81829e-13 0)
(580 -1.92531e-13 0)
(580 -4.43361e-13 0)
(580 -3.43334e-13 0)
(580 -2.04392e-13 0)
(580 -6.86895e-14 0)
(580 9.34631e-14 0)
(580 2.05617e-13 0)
(580 6.10887e-13 0)
(580 4.93429e-13 0)
(580 3.78202e-13 0)
(580 3.23168e-13 0)
(580 -5.13152e-14 0)
(580 -3.66715e-13 0)
(580 -6.35881e-13 0)
(580 -7.15469e-13 0)
(580 -5.47203e-13 0)
(580 -4.80344e-13 0)
(580 -5.07215e-13 0)
(580 -4.91284e-13 0)
(580 -3.42579e-13 0)
(580 -3.72151e-13 0)
(580 -1.51217e-13 0)
(580 -3.7517e-14 0)
(580 -4.15762e-14 0)
(580 7.13177e-14 0)
(580 -4.88534e-14 0)
(580 -1.00834e-14 0)
(580 1.38697e-13 0)
(580 1.82259e-13 0)
(580 2.14789e-13 0)
(580 -8.06368e-14 0)
(580 -2.87214e-13 0)
(580 -1.01482e-13 0)
(580 -3.58716e-14 0)
(580 5.35301e-14 0)
(580 6.07216e-13 0)
(580 6.58803e-13 0)
(580 8.49878e-13 0)
(580 7.54712e-13 0)
(580 6.69793e-13 0)
(580 6.89884e-13 0)
(580 7.93221e-13 0)
(580 1.1676e-12 0)
(580 1.11341e-12 0)
(580 1.32343e-12 0)
(580 1.1708e-12 0)
(580 1.34158e-12 0)
(580 9.89756e-13 0)
(580 7.31296e-13 0)
(580 6.79164e-13 0)
(580 5.15455e-13 0)
(580 5.00791e-13 0)
(580 7.38428e-13 0)
(580 8.91544e-13 0)
(580 8.37088e-13 0)
(580 7.49327e-13 0)
(580 3.56554e-13 0)
(580 2.23539e-13 0)
(580 4.86272e-13 0)
(580 5.89977e-13 0)
(580 4.9639e-13 0)
(580 7.17597e-13 0)
(580 1.14208e-12 0)
(580 1.22059e-12 0)
(580 1.35506e-12 0)
(580 1.31216e-12 0)
(580 1.19818e-12 0)
(580 1.13617e-12 0)
(580 1.00555e-12 0)
(580 5.31875e-13 0)
(580 -8.11326e-14 0)
(580 -1.96879e-13 0)
(580 -4.42788e-13 0)
(580 -6.73105e-13 0)
(580 -7.9176e-13 0)
(580 3.25299e-14 0)
(580 -1.59397e-13 0)
(580 -1.90622e-14 0)
(580 2.98982e-14 0)
(580 1.3728e-13 0)
(580 4.21991e-13 0)
(580 3.4345e-13 0)
(580 3.1923e-13 0)
(580 1.89786e-13 0)
(580 9.42935e-14 0)
(580 8.93126e-14 0)
(580 2.21575e-13 0)
(580 2.39808e-13 0)
(580 3.55741e-13 0)
(580 5.67602e-13 0)
(580 2.96151e-13 0)
(580 7.60846e-14 0)
(580 -1.18171e-13 0)
(580 -2.28178e-13 0)
(580 -5.04144e-13 0)
(580 -5.8737e-13 0)
(580 -6.0706e-13 0)
(580 -4.61381e-13 0)
(580 -3.2167e-13 0)
(580 -3.44078e-13 0)
(580 -1.09759e-14 0)
(580 5.59439e-13 0)
(580 6.68437e-13 0)
(580 4.45729e-13 0)
(580 1.35132e-13 0)
(580 1.36827e-14 0)
(580 -1.51855e-13 0)
(580 -1.16634e-13 0)
(580 -1.37651e-13 0)
(580 -2.20797e-13 0)
(580 -3.35431e-13 0)
(580 -4.48735e-13 0)
(580 -6.94695e-13 0)
(580 -6.469e-13 0)
(580 -1.50331e-13 0)
(580 4.17119e-13 0)
(580 6.44178e-13 0)
(580 6.83883e-13 0)
(580 7.43556e-13 0)
(580 8.904e-13 0)
(580 1.09602e-12 0)
(580 1.11729e-12 0)
(580 1.2061e-12 0)
(580 1.05601e-12 0)
(580 9.67286e-13 0)
(580 9.81247e-13 0)
(580 1.10664e-12 0)
(580 1.36594e-12 0)
(580 1.47325e-12 0)
(580 1.29954e-12 0)
(580 1.32333e-12 0)
(580 1.25976e-12 0)
(580 1.43366e-12 0)
(580 1.34957e-12 0)
(580 1.25216e-12 0)
(580 6.28991e-13 0)
(580 -4.40359e-14 0)
(580 -4.80213e-13 0)
(580 -4.79424e-13 0)
(580 -3.51994e-13 0)
(580 6.0513e-14 0)
(580 4.41863e-13 0)
(580 4.59664e-13 0)
(580 1.24041e-14 0)
(580 -1.88371e-14 0)
(580 -7.37276e-14 0)
(580 3.33472e-13 0)
(580 3.73068e-13 0)
(580 1.86194e-13 0)
(580 -6.72512e-15 0)
(580 -2.48319e-13 0)
(580 -6.59452e-13 0)
(580 -1.27714e-12 0)
(580 -1.40513e-12 0)
(580 -1.25376e-12 0)
(580 -6.43478e-14 0)
(580 -6.40486e-14 0)
(580 -2.10754e-15 0)
(580 1.58564e-13 0)
(580 5.42716e-13 0)
(580 8.46428e-13 0)
(580 8.04629e-13 0)
(580 6.24187e-13 0)
(580 3.21522e-13 0)
(580 3.09695e-13 0)
(580 6.48425e-14 0)
(580 1.26933e-14 0)
(580 1.93507e-13 0)
(580 4.51318e-13 0)
(580 4.90045e-13 0)
(580 6.19391e-13 0)
(580 4.15478e-13 0)
(580 -1.01022e-14 0)
(580 -2.52466e-14 0)
(580 -7.01556e-14 0)
(580 -3.14255e-13 0)
(580 -2.83978e-13 0)
(580 -1.8212e-13 0)
(580 -1.37592e-14 0)
(580 -2.65769e-14 0)
(580 2.6129e-13 0)
(580 4.24255e-13 0)
(580 5.64106e-13 0)
(580 5.8462e-13 0)
(580 2.56557e-13 0)
(580 8.38998e-14 0)
(580 1.11288e-13 0)
(580 2.32394e-13 0)
(580 2.34679e-13 0)
(580 -9.34487e-15 0)
(580 -4.57976e-13 0)
(580 -3.51086e-13 0)
(580 -5.53725e-13 0)
(580 -3.62937e-13 0)
(580 -1.08703e-13 0)
(580 1.06587e-13 0)
(580 2.6229e-13 0)
(580 2.18949e-13 0)
(580 3.23121e-13 0)
(580 7.55817e-13 0)
(580 8.27679e-13 0)
(580 7.99602e-13 0)
(580 7.21872e-13 0)
(580 9.17572e-13 0)
(580 8.91177e-13 0)
(580 1.14241e-12 0)
(580 1.05457e-12 0)
(580 1.12248e-12 0)
(580 1.21026e-12 0)
(580 1.17598e-12 0)
(580 1.13847e-12 0)
(580 1.15623e-12 0)
(580 1.19871e-12 0)
(580 1.16904e-12 0)
(580 7.80639e-13 0)
(580 1.27983e-14 0)
(580 -7.28017e-13 0)
(580 -1.38596e-12 0)
(580 -1.28903e-12 0)
(580 -4.99103e-13 0)
(580 3.73603e-14 0)
(580 -4.32947e-14 0)
(580 -4.22125e-13 0)
(580 -4.48929e-13 0)
(580 -3.57366e-13 0)
(580 -3.07056e-13 0)
(580 -3.746e-13 0)
(580 -3.56659e-13 0)
(580 -3.30009e-13 0)
(580 -4.86243e-13 0)
(580 -8.12698e-13 0)
(580 -9.29616e-13 0)
(580 -1.21412e-12 0)
(580 -1.30122e-12 0)
(580 -1.15112e-12 0)
(580 4.55131e-15 0)
(580 1.60732e-13 0)
(580 1.37585e-13 0)
(580 2.35201e-13 0)
(580 4.02848e-13 0)
(580 3.0544e-13 0)
(580 2.54222e-13 0)
(580 1.54848e-13 0)
(580 1.33129e-13 0)
(580 2.04119e-13 0)
(580 2.92128e-14 0)
(580 -9.02772e-14 0)
(580 -1.13585e-14 0)
(580 -1.37043e-14 0)
(580 -2.58695e-13 0)
(580 -4.34893e-13 0)
(580 -3.46365e-13 0)
(580 -1.39743e-13 0)
(580 -6.81132e-14 0)
(580 6.37897e-14 0)
(580 9.10708e-15 0)
(580 1.42013e-13 0)
(580 2.12058e-13 0)
(580 2.27494e-13 0)
(580 3.34719e-13 0)
(580 3.26334e-13 0)
(580 1.97453e-13 0)
(580 1.14633e-13 0)
(580 -8.22466e-14 0)
(580 -1.77401e-13 0)
(580 -2.84892e-13 0)
(580 1.39496e-13 0)
(580 6.44e-13 0)
(580 6.62294e-13 0)
(580 6.86962e-13 0)
(580 3.57845e-13 0)
(580 3.11537e-13 0)
(580 4.44502e-13 0)
(580 3.57857e-13 0)
(580 3.4729e-13 0)
(580 1.18512e-13 0)
(580 3.83943e-13 0)
(580 5.51602e-13 0)
(580 6.75377e-13 0)
(580 8.9607e-13 0)
(580 1.00008e-12 0)
(580 9.51768e-13 0)
(580 8.97558e-13 0)
(580 9.56903e-13 0)
(580 9.70905e-13 0)
(580 9.37617e-13 0)
(580 6.31276e-13 0)
(580 3.3865e-13 0)
(580 4.85055e-13 0)
(580 4.54892e-13 0)
(580 4.9282e-13 0)
(580 5.79377e-13 0)
(580 4.55975e-13 0)
(580 4.94259e-13 0)
(580 1.54521e-13 0)
(580 -1.5288e-13 0)
(580 -1.17764e-13 0)
(580 -4.29063e-13 0)
(580 -6.35237e-13 0)
(580 -2.5903e-13 0)
(580 -2.11189e-13 0)
(580 -3.36183e-13 0)
(580 -2.32686e-13 0)
(580 6.28605e-14 0)
(580 5.18413e-14 0)
(580 -6.77664e-14 0)
(580 -5.2313e-13 0)
(580 -5.32498e-13 0)
(580 -4.68584e-13 0)
(580 -6.21918e-13 0)
(580 -1.04729e-12 0)
(580 -1.06212e-12 0)
(580 -1.05895e-12 0)
(580 -1.09285e-12 0)
(580 -1.01382e-12 0)
(580 2.5843e-13 0)
(580 1.8838e-13 0)
(580 1.14215e-13 0)
(580 1.22228e-13 0)
(580 1.0774e-13 0)
(580 1.13712e-13 0)
(580 1.28556e-13 0)
(580 8.14432e-14 0)
(580 1.18484e-13 0)
(580 1.10388e-13 0)
(580 2.67177e-13 0)
(580 2.26465e-13 0)
(580 -2.08884e-13 0)
(580 -5.32023e-13 0)
(580 -6.09824e-13 0)
(580 -8.30105e-13 0)
(580 -8.1513e-13 0)
(580 -1.69297e-13 0)
(580 2.07046e-13 0)
(580 2.72813e-13 0)
(580 5.13642e-13 0)
(580 8.06073e-13 0)
(580 1.00074e-12 0)
(580 9.04344e-13 0)
(580 8.03795e-13 0)
(580 6.0188e-13 0)
(580 3.09424e-13 0)
(580 -1.36678e-13 0)
(580 -2.74388e-13 0)
(580 -2.29146e-13 0)
(580 4.47857e-14 0)
(580 2.42505e-13 0)
(580 6.27007e-13 0)
(580 7.11965e-13 0)
(580 9.6684e-13 0)
(580 1.18408e-12 0)
(580 1.24974e-12 0)
(580 1.19313e-12 0)
(580 9.43088e-13 0)
(580 5.75761e-13 0)
(580 4.30014e-13 0)
(580 6.77068e-13 0)
(580 8.46921e-13 0)
(580 8.63681e-13 0)
(580 8.2836e-13 0)
(580 8.84829e-13 0)
(580 1.10036e-12 0)
(580 1.1978e-12 0)
(580 1.08138e-12 0)
(580 7.96718e-13 0)
(580 3.71868e-13 0)
(580 -2.33873e-13 0)
(580 -4.91063e-13 0)
(580 -5.45049e-13 0)
(580 -6.21224e-13 0)
(580 -3.68308e-13 0)
(580 -2.54507e-13 0)
(580 -5.3153e-13 0)
(580 -1.16611e-12 0)
(580 -9.90436e-13 0)
(580 -8.33011e-13 0)
(580 -3.29265e-13 0)
(580 -1.4893e-13 0)
(580 7.67224e-14 0)
(580 -4.0656e-13 0)
(580 -5.04554e-13 0)
(580 -1.47725e-13 0)
(580 6.44409e-13 0)
(580 9.59723e-13 0)
(580 6.67063e-13 0)
(580 4.37083e-13 0)
(580 1.45712e-13 0)
(580 -2.06985e-13 0)
(580 -4.49838e-13 0)
(580 -7.98804e-13 0)
(580 -5.90809e-13 0)
(580 -6.62413e-13 0)
(580 -6.90175e-13 0)
(580 -6.94293e-13 0)
(580 -7.94116e-13 0)
(580 1.33098e-13 0)
(580 -1.40879e-14 0)
(580 1.00935e-13 0)
(580 2.29428e-13 0)
(580 2.24317e-13 0)
(580 3.53048e-13 0)
(580 4.14818e-13 0)
(580 3.91003e-13 0)
(580 2.86158e-13 0)
(580 1.55402e-13 0)
(580 3.47606e-13 0)
(580 2.97664e-13 0)
(580 1.43038e-13 0)
(580 -1.74511e-14 0)
(580 -2.31263e-13 0)
(580 -2.1353e-13 0)
(580 -2.39482e-13 0)
(580 2.18671e-13 0)
(580 4.42939e-13 0)
(580 5.52181e-13 0)
(580 7.14429e-13 0)
(580 8.21864e-13 0)
(580 8.44863e-13 0)
(580 9.30595e-13 0)
(580 9.37948e-13 0)
(580 7.86821e-13 0)
(580 8.03874e-13 0)
(580 5.94692e-13 0)
(580 3.71406e-13 0)
(580 3.13783e-13 0)
(580 7.0223e-13 0)
(580 1.13675e-12 0)
(580 1.27909e-12 0)
(580 1.15283e-12 0)
(580 8.50352e-13 0)
(580 1.21448e-12 0)
(580 1.54642e-12 0)
(580 1.71356e-12 0)
(580 1.58039e-12 0)
(580 1.25669e-12 0)
(580 7.26628e-13 0)
(580 8.11224e-13 0)
(580 6.45558e-13 0)
(580 6.26069e-13 0)
(580 6.28998e-13 0)
(580 4.94674e-13 0)
(580 6.08484e-13 0)
(580 5.72186e-13 0)
(580 3.31177e-13 0)
(580 2.30037e-13 0)
(580 7.66456e-14 0)
(580 -3.84244e-13 0)
(580 -8.89e-13 0)
(580 -1.09008e-12 0)
(580 -1.02548e-12 0)
(580 -9.46384e-13 0)
(580 -1.13788e-12 0)
(580 -1.23257e-12 0)
(580 -1.47991e-12 0)
(580 -1.29162e-12 0)
(580 -9.31002e-13 0)
(580 -6.13649e-13 0)
(580 -3.23989e-13 0)
(580 -3.51528e-13 0)
(580 -3.39393e-13 0)
(580 -2.12548e-13 0)
(580 1.20167e-13 0)
(580 6.74635e-13 0)
(580 7.47418e-13 0)
(580 5.52332e-13 0)
(580 2.735e-13 0)
(580 1.63459e-13 0)
(580 1.88745e-13 0)
(580 -1.17856e-13 0)
(580 -6.47652e-13 0)
(580 -5.85955e-13 0)
(580 -7.07607e-13 0)
(580 -6.39894e-13 0)
(580 -5.21669e-13 0)
(580 -3.57638e-13 0)
(580 1.05818e-13 0)
(580 2.65065e-13 0)
(580 2.47535e-13 0)
(580 1.49421e-13 0)
(580 1.40531e-13 0)
(580 2.00672e-14 0)
(580 -1.66603e-13 0)
(580 2.85222e-14 0)
(580 9.28863e-14 0)
(580 1.6752e-13 0)
(580 4.65149e-14 0)
(580 1.79333e-13 0)
(580 2.60808e-13 0)
(580 4.1313e-13 0)
(580 2.30497e-13 0)
(580 2.54173e-13 0)
(580 1.87673e-13 0)
(580 7.37654e-14 0)
(580 1.71177e-14 0)
(580 -8.39795e-14 0)
(580 1.19421e-13 0)
(580 3.19472e-13 0)
(580 3.66717e-13 0)
(580 4.13292e-13 0)
(580 3.80213e-13 0)
(580 3.84424e-13 0)
(580 3.27681e-13 0)
(580 3.04241e-13 0)
(580 1.8927e-13 0)
(580 -6.51578e-15 0)
(580 4.01887e-13 0)
(580 8.65784e-13 0)
(580 1.03112e-12 0)
(580 8.73081e-13 0)
(580 6.10483e-13 0)
(580 9.96037e-13 0)
(580 1.03624e-12 0)
(580 1.03722e-12 0)
(580 1.00049e-12 0)
(580 1.07569e-12 0)
(580 1.08428e-12 0)
(580 8.05603e-13 0)
(580 9.10495e-13 0)
(580 8.4748e-13 0)
(580 7.39369e-13 0)
(580 5.86184e-13 0)
(580 5.10456e-13 0)
(580 4.52642e-13 0)
(580 3.94922e-13 0)
(580 4.3812e-13 0)
(580 1.69872e-13 0)
(580 6.32377e-14 0)
(580 -3.04325e-13 0)
(580 -5.94735e-13 0)
(580 -7.06206e-13 0)
(580 -8.68386e-13 0)
(580 -1.28548e-12 0)
(580 -1.19454e-12 0)
(580 -1.09362e-12 0)
(580 -8.50825e-13 0)
(580 -7.54029e-13 0)
(580 -4.44839e-13 0)
(580 -4.28471e-13 0)
(580 -5.56898e-13 0)
(580 -5.63616e-13 0)
(580 -4.65517e-13 0)
(580 -2.64156e-13 0)
(580 -3.49569e-13 0)
(580 -4.10432e-13 0)
(580 -2.05759e-13 0)
(580 -1.61244e-13 0)
(580 -1.80877e-13 0)
(580 -1.78426e-13 0)
(580 -3.57084e-14 0)
(580 -1.13263e-13 0)
(580 -1.99196e-13 0)
(580 -4.63519e-13 0)
(580 -5.28604e-13 0)
(580 -4.58085e-13 0)
(580 -3.18033e-13 0)
(580 -9.92542e-14 0)
(580 2.02752e-13 0)
(580 1.3491e-13 0)
(580 -2.0381e-13 0)
(580 -2.62157e-13 0)
(580 -3.3454e-13 0)
(580 -4.58272e-13 0)
(580 -5.22144e-13 0)
(580 -5.30347e-13 0)
(580 -4.34545e-13 0)
(580 -4.78423e-13 0)
(580 -4.0645e-13 0)
(580 -1.72323e-13 0)
(580 -6.83852e-15 0)
(580 2.1605e-13 0)
(580 2.15114e-13 0)
(580 1.35916e-13 0)
(580 -1.72991e-13 0)
(580 -4.71201e-13 0)
(580 -4.39307e-13 0)
(580 -4.07177e-13 0)
(580 -3.25492e-13 0)
(580 -1.16561e-13 0)
(580 1.3821e-13 0)
(580 8.62778e-14 0)
(580 8.55419e-14 0)
(580 -2.22565e-13 0)
(580 -2.40471e-13 0)
(580 -5.93283e-14 0)
(580 1.4854e-13 0)
(580 1.64426e-13 0)
(580 1.85694e-13 0)
(580 4.8491e-15 0)
(580 -3.47094e-13 0)
(580 -1.21141e-13 0)
(580 3.33134e-13 0)
(580 4.47426e-13 0)
(580 5.55252e-13 0)
(580 8.03232e-13 0)
(580 1.19382e-12 0)
(580 1.35009e-12 0)
(580 1.42088e-12 0)
(580 1.65157e-12 0)
(580 1.61033e-12 0)
(580 1.50696e-12 0)
(580 1.24425e-12 0)
(580 1.11158e-12 0)
(580 1.11121e-12 0)
(580 8.39942e-13 0)
(580 8.19793e-13 0)
(580 5.16973e-13 0)
(580 5.29333e-13 0)
(580 2.20194e-13 0)
(580 1.44945e-13 0)
(580 -3.79762e-13 0)
(580 -7.77553e-13 0)
(580 -1.09039e-12 0)
(580 -9.2608e-13 0)
(580 -7.29471e-13 0)
(580 -4.08565e-13 0)
(580 -2.62702e-13 0)
(580 -4.07991e-14 0)
(580 -8.38371e-14 0)
(580 -2.19531e-13 0)
(580 -1.53739e-13 0)
(580 -6.90718e-14 0)
(580 -3.04513e-13 0)
(580 -6.8423e-13 0)
(580 -9.29585e-13 0)
(580 -7.41409e-13 0)
(580 -4.58099e-13 0)
(580 -3.01809e-13 0)
(580 -2.55566e-13 0)