/*--------------------------------*- C++ -*----------------------------------*\
| =========                 |                                                 |
| \\      /  F ield         | OpenFOAM: The Open Source CFD Toolbox           |
|  \\    /   O peration     | Version:  2306                                  |
|   \\  /    A nd           | Website:  www.openfoam.com                      |
|    \\/     M anipulation  |                                                 |
\*---------------------------------------------------------------------------*/
FoamFile
{
    version     2.0;
    format      ascii;
    arch        "LSB;label=32;scalar=64";
    class       volVectorField;
    location    "1e-05";
    object      U;
}
// * * * * * * * * * * * * * * * * * * * * * * * * * * * * * * * * * * * * * //

dimensions      [0 1 -1 0 0 0 0];

internalField   nonuniform List<vector> 
9044
(
(525.516 4.17484e-13 0)
(525.571 -3.50578e-12 0)
(525.516 -1.25587e-12 0)
(525.571 4.005e-12 0)
(525.516 -1.04876e-13 0)
(525.571 8.23623e-13 0)
(525.516 4.51218e-13 0)
(525.571 -3.23062e-12 0)
(525.516 3.18006e-12 0)
(525.571 -5.08513e-12 0)
(525.516 -3.09235e-12 0)
(525.571 1.61765e-11 0)
(525.516 1.11005e-13 0)
(525.571 -4.68479e-12 0)
(525.516 3.5924e-13 0)
(525.571 -4.55072e-12 0)
(525.516 -4.32813e-13 0)
(525.571 1.70007e-12 0)
(525.516 2.63206e-12 0)
(525.571 1.49772e-12 0)
(525.516 2.83885e-13 0)
(525.571 4.88786e-11 0)
(525.516 -8.25172e-11 0)
(525.571 2.96778e-10 0)
(525.516 -6.57444e-10 0)
(525.571 7.67054e-10 0)
(525.516 -2.01528e-09 0)
(525.571 3.25946e-10 0)
(525.516 3.38029e-09 0)
(525.571 -4.93112e-09 0)
(525.516 -2.80424e-09 0)
(525.571 -2.18011e-08 0)
(-1.59224e-13 4.83531e-13 0)
(-6.54026e-13 4.68001e-13 0)
(-7.17144e-13 3.21905e-13 0)
(-1.42748e-13 5.98704e-14 0)
(4.28302e-13 2.92977e-13 0)
(9.8455e-13 2.16407e-13 0)
(6.26356e-13 2.98802e-13 0)
(6.51969e-13 4.10737e-13 0)
(1.62782e-13 3.61032e-13 0)
(-6.65932e-14 4.9979e-13 0)
(1.14231e-13 4.25687e-13 0)
(4.61499e-14 4.14385e-13 0)
(526.043 1.23223e-11 0)
(526.035 -1.42522e-11 0)
(526.024 -1.05443e-11 0)
(526.006 4.11893e-11 0)
(525.987 5.87753e-11 0)
(525.969 -2.20798e-10 0)
(525.937 3.20921e-10 0)
(525.886 -1.2538e-09 0)
(525.836 7.16831e-10 0)
(525.828 -1.36353e-11 0)
(525.916 6.35768e-10 0)
(526.167 4.85319e-10 0)
(526.596 -9.91859e-13 0)
(527.144 -3.12057e-09 0)
(527.939 -2.1652e-09 0)
(527.784 -1.51048e-09 0)
(525.301 -2.14792e-10 0)
(525.079 2.46764e-10 0)
(525.317 1.78243e-10 0)
(525.365 -1.54468e-10 0)
(525.474 -3.90785e-10 0)
(525.655 -7.14989e-10 0)
(525.873 -1.17086e-09 0)
(526.316 -1.30842e-09 0)
(526.998 -1.40638e-09 0)
(526.907 -1.19153e-09 0)
(526.833 -1.16586e-09 0)
(526.727 -7.2518e-10 0)
(526.507 -8.812e-10 0)
(526.2 -1.32544e-09 0)
(525.858 -1.30705e-09 0)
(525.383 -2.63661e-09 0)
(524.932 -3.30694e-09 0)
(524.847 -3.43374e-09 0)
(524.849 -3.91784e-09 0)
(524.896 -4.61228e-09 0)
(525.034 -4.74819e-09 0)
(525.269 -4.98292e-09 0)
(525.606 -5.2327e-09 0)
(526.224 -3.04864e-09 0)
(526.886 -5.86277e-10 0)
(527.145 2.7953e-10 0)
(527.187 1.47385e-09 0)
(527.192 3.9425e-09 0)
(527.093 5.84793e-09 0)
(526.774 1.12875e-08 0)
(526.227 1.61165e-08 0)
(525.645 1.03971e-08 0)
(525.218 -1.98171e-09 0)
(524.71 -2.75227e-11 0)
(522.385 5.94628e-09 0)
(503.362 3.5986e-08 0)
(382.445 -4.03379e-09 0)
(84.7962 3.3277e-09 0)
(0.706096 -6.50951e-11 0)
(0.000117813 2.39605e-13 0)
(9.30586e-10 4.40047e-13 0)
(2.72692e-13 3.19734e-13 0)
(-8.87118e-15 3.96254e-13 0)
(-4.11719e-13 4.26331e-13 0)
(-5.94431e-13 5.03839e-13 0)
(-9.66219e-14 3.48368e-13 0)
(3.87682e-13 4.64453e-13 0)
(7.31923e-13 2.32356e-13 0)
(3.77346e-13 1.87743e-13 0)
(5.45215e-13 1.0721e-13 0)
(5.46658e-13 3.26354e-13 0)
(9.76856e-14 4.22131e-13 0)
(5.0563e-13 3.49024e-13 0)
(8.07731e-13 5.75006e-13 0)
(526.043 -3.53607e-11 0)
(526.035 -6.83295e-11 0)
(526.024 -7.09013e-11 0)
(526.006 3.86187e-13 0)
(525.987 9.30023e-11 0)
(525.969 3.02091e-10 0)
(525.937 2.29845e-10 0)
(525.886 1.32096e-09 0)
(525.836 1.60938e-11 0)
(525.828 2.00417e-09 0)
(525.916 2.8121e-09 0)
(526.167 1.28868e-09 0)
(526.596 -7.70482e-10 0)
(527.144 1.36906e-09 0)
(527.939 1.89057e-09 0)
(527.784 1.78013e-09 0)
(525.301 6.34996e-10 0)
(525.079 -7.33981e-10 0)
(525.317 -1.03061e-09 0)
(525.365 -1.24143e-09 0)
(525.474 -1.6978e-09 0)
(525.655 -2.324e-09 0)
(525.873 -3.03952e-09 0)
(526.316 -2.88703e-09 0)
(526.998 -2.07934e-09 0)
(526.907 -9.78293e-10 0)
(526.833 -3.55909e-10 0)
(526.727 7.3031e-10 0)
(526.507 1.63246e-09 0)
(526.2 1.64126e-09 0)
(525.858 6.86206e-10 0)
(525.383 -5.4417e-10 0)
(524.932 -1.81116e-09 0)
(524.847 -2.44496e-09 0)
(524.849 -3.11389e-09 0)
(524.896 -4.94211e-09 0)
(525.034 -5.96642e-09 0)
(525.269 -4.87699e-09 0)
(525.606 -4.67013e-09 0)
(526.224 -7.30984e-10 0)
(526.886 4.05506e-09 0)
(527.145 4.89276e-09 0)
(527.187 6.44472e-09 0)
(527.192 1.23307e-08 0)
(527.093 1.48369e-08 0)
(526.774 1.9809e-08 0)
(526.227 1.76431e-08 0)
(525.645 -3.43293e-09 0)
(525.218 -1.05752e-09 0)
(524.71 5.27748e-09 0)
(522.385 2.12391e-08 0)
(503.362 4.57509e-09 0)
(382.445 1.87711e-08 0)
(84.7962 1.68462e-09 0)
(0.706096 3.0217e-12 0)
(0.000117813 5.72869e-13 0)
(9.30132e-10 5.25226e-13 0)
(2.85621e-13 4.25385e-13 0)
(2.05703e-13 4.1455e-13 0)
(-2.72797e-13 4.6558e-13 0)
(-9.25689e-13 4.65508e-13 0)
(-3.3969e-13 4.10897e-13 0)
(-3.84599e-15 5.14149e-13 0)
(6.23343e-14 4.5952e-13 0)
(4.12423e-13 4.85782e-13 0)
(9.13683e-13 5.68646e-13 0)
(9.61927e-13 4.40176e-13 0)
(8.81087e-14 5.15382e-13 0)
(3.08916e-13 3.66137e-13 0)
(5.54754e-13 9.08278e-14 0)
(526.043 -4.46417e-11 0)
(526.035 -1.11295e-10 0)
(526.024 -1.11044e-10 0)
(526.006 -1.52657e-10 0)
(525.987 -3.03084e-11 0)
(525.969 -2.47279e-12 0)
(525.937 2.75866e-10 0)
(525.886 6.61104e-10 0)
(525.836 3.35372e-10 0)
(525.828 8.61265e-10 0)
(525.916 1.3465e-09 0)
(526.167 1.86827e-10 0)
(526.596 -1.5691e-09 0)
(527.144 6.94289e-10 0)
(527.939 2.65617e-09 0)
(527.784 4.10485e-09 0)
(525.301 9.71564e-10 0)
(525.079 -2.05606e-09 0)
(525.317 -2.38031e-09 0)
(525.365 -2.67007e-09 0)
(525.474 -2.75083e-09 0)
(525.655 -3.11606e-09 0)
(525.873 -3.77209e-09 0)
(526.316 -3.20652e-09 0)
(526.998 -1.12621e-09 0)
(526.907 8.77611e-10 0)
(526.833 1.8962e-09 0)
(526.727 3.30905e-09 0)
(526.507 4.55771e-09 0)
(526.2 4.65102e-09 0)
(525.858 3.25943e-09 0)
(525.383 2.50057e-09 0)
(524.932 1.11752e-09 0)
(524.847 -1.07629e-11 0)
(524.849 -5.95884e-10 0)
(524.896 -2.65305e-09 0)
(525.034 -4.31651e-09 0)
(525.269 -1.72141e-09 0)
(525.606 2.75781e-10 0)
(526.224 2.13698e-09 0)
(526.886 5.77025e-09 0)
(527.145 8.83625e-09 0)
(527.187 1.04544e-08 0)
(527.192 1.5365e-08 0)
(527.093 9.53363e-09 0)
(526.774 1.2185e-08 0)
(526.227 2.48434e-09 0)
(525.645 -5.26222e-09 0)
(525.218 -1.10947e-09 0)
(524.71 9.97717e-09 0)
(522.385 9.58926e-09 0)
(503.362 -2.15956e-08 0)
(382.445 1.14888e-08 0)
(84.7962 -4.85789e-09 0)
(0.706096 2.83758e-11 0)
(0.000117813 5.38832e-13 0)
(9.30219e-10 2.23584e-13 0)
(1.93816e-14 3.44146e-13 0)
(1.37339e-13 3.07081e-13 0)
(-4.91702e-15 5.06336e-13 0)
(-4.53192e-13 4.5722e-13 0)
(-8.16395e-14 7.47021e-13 0)
(3.37576e-13 6.79931e-13 0)
(3.91131e-13 7.30367e-13 0)
(3.0026e-13 6.51693e-13 0)
(2.09316e-13 6.60844e-13 0)
(4.83456e-13 3.52808e-13 0)
(1.22424e-13 1.09977e-13 0)
(-3.63407e-14 -6.56357e-14 0)
(-1.14472e-13 -1.77474e-13 0)
(526.043 1.37851e-11 0)
(526.035 -5.15588e-11 0)
(526.024 -1.0515e-10 0)
(526.006 -9.50303e-11 0)
(525.987 -2.26296e-10 0)
(525.969 -3.78698e-11 0)
(525.937 -4.01778e-10 0)
(525.886 -6.79991e-10 0)
(525.836 3.12803e-10 0)
(525.828 -1.38295e-09 0)
(525.916 1.00251e-09 0)
(526.167 1.98978e-09 0)
(526.596 1.54267e-09 0)
(527.144 -1.11908e-09 0)
(527.939 1.42525e-09 0)
(527.784 8.38254e-10 0)
(525.301 -2.09144e-09 0)
(525.079 -3.46765e-09 0)
(525.317 -3.55255e-09 0)
(525.365 -3.51354e-09 0)
(525.474 -3.19019e-09 0)
(525.655 -2.95545e-09 0)
(525.873 -2.70402e-09 0)
(526.316 -1.817e-09 0)
(526.998 1.36152e-09 0)
(526.907 3.38572e-09 0)
(526.833 4.25973e-09 0)
(526.727 5.39473e-09 0)
(526.507 5.82451e-09 0)
(526.2 5.81709e-09 0)
(525.858 4.86639e-09 0)
(525.383 4.34127e-09 0)
(524.932 3.5747e-09 0)
(524.847 2.95973e-09 0)
(524.849 2.73437e-09 0)
(524.896 1.35813e-09 0)
(525.034 -1.20421e-11 0)
(525.269 8.55208e-10 0)
(525.606 2.8751e-09 0)
(526.224 3.76615e-09 0)
(526.886 4.99644e-09 0)
(527.145 6.89546e-09 0)
(527.187 6.81411e-09 0)
(527.192 -2.04477e-11 0)
(527.093 -5.24558e-09 0)
(526.774 1.6228e-09 0)
(526.227 -1.22706e-08 0)
(525.645 8.94423e-11 0)
(525.218 1.33124e-10 0)
(524.71 1.83678e-09 0)
(522.385 -1.3502e-08 0)
(503.362 3.04574e-08 0)
(382.445 7.22233e-09 0)
(84.7962 4.06652e-09 0)
(0.706096 6.15401e-11 0)
(0.000117813 2.6402e-13 0)
(9.30508e-10 6.81772e-13 0)
(1.6868e-13 7.52276e-13 0)
(2.73403e-13 7.62128e-13 0)
(2.71501e-14 4.61604e-13 0)
(-2.06574e-13 5.90515e-13 0)
(3.2627e-14 4.75579e-13 0)
(5.84796e-15 5.05304e-13 0)
(-4.90502e-14 4.1602e-13 0)
(3.13504e-13 1.3222e-13 0)
(5.05502e-13 -1.89886e-14 0)
(-6.95125e-14 -5.51498e-14 0)
(-5.54377e-13 -2.4703e-13 0)
(-1.71378e-13 -1.46478e-13 0)
(4.46006e-13 -3.21342e-13 0)
(526.043 4.15216e-11 0)
(526.035 6.82017e-11 0)
(526.024 5.45377e-11 0)
(526.006 1.01924e-10 0)
(525.987 8.35132e-11 0)
(525.969 -2.55396e-10 0)
(525.937 -8.81733e-11 0)
(525.886 -3.49134e-10 0)
(525.836 6.90023e-12 0)
(525.828 -1.75339e-13 0)
(525.916 -1.02631e-09 0)
(526.167 -1.98589e-09 0)
(526.596 -4.60227e-10 0)
(527.144 -1.10181e-10 0)
(527.939 -1.22027e-09 0)
(527.784 -2.11745e-09 0)
(525.301 -2.72702e-09 0)
(525.079 -3.77948e-09 0)
(525.317 -3.60333e-09 0)
(525.365 -3.18766e-09 0)
(525.474 -2.38148e-09 0)
(525.655 -1.8493e-09 0)
(525.873 -1.32321e-09 0)
(526.316 -4.64414e-11 0)
(526.998 2.67611e-09 0)
(526.907 4.12181e-09 0)
(526.833 4.57645e-09 0)
(526.727 5.41936e-09 0)
(526.507 5.42307e-09 0)
(526.2 5.0236e-09 0)
(525.858 4.38003e-09 0)
(525.383 4.8504e-09 0)
(524.932 4.904e-09 0)
(524.847 5.1295e-09 0)
(524.849 5.63309e-09 0)
(524.896 6.26089e-09 0)
(525.034 4.09989e-09 0)
(525.269 1.3735e-09 0)
(525.606 3.87164e-09 0)
(526.224 2.17269e-09 0)
(526.886 -1.28416e-09 0)
(527.145 -3.46339e-09 0)
(527.187 -5.61602e-09 0)
(527.192 -1.53897e-08 0)
(527.093 -1.25044e-08 0)
(526.774 4.59633e-09 0)
(526.227 -8.76569e-09 0)
(525.645 -8.26677e-09 0)
(525.218 -5.5953e-10 0)
(524.71 -9.42019e-09 0)
(522.385 -1.95944e-08 0)
(503.362 -3.11686e-08 0)
(382.445 -4.31068e-08 0)
(84.7962 -5.22024e-09 0)
(0.706096 -7.35958e-11 0)
(0.000117813 4.53835e-13 0)
(9.30823e-10 5.1121e-13 0)
(-3.8051e-15 4.34311e-13 0)
(-7.23281e-13 3.00621e-13 0)
(-3.72074e-13 1.15105e-13 0)
(-2.44031e-13 2.16343e-13 0)
(3.41965e-14 -8.2922e-14 0)
(3.60286e-13 -2.0408e-13 0)
(-8.92096e-14 -3.27343e-13 0)
(-2.28256e-13 -4.4343e-13 0)
(2.80071e-14 -4.3392e-13 0)
(2.33063e-13 -6.78713e-13 0)
(1.06994e-13 -5.00077e-13 0)
(-1.46969e-13 -2.01917e-13 0)
(9.85655e-14 -7.26172e-14 0)
(526.043 2.02783e-11 0)
(526.035 6.33102e-11 0)
(526.024 7.47301e-11 0)
(526.006 1.70694e-11 0)
(525.987 8.66799e-11 0)
(525.969 -2.41859e-10 0)
(525.937 -2.19666e-11 0)
(525.886 7.19015e-10 0)
(525.836 1.46727e-10 0)
(525.828 3.47197e-10 0)
(525.916 -2.15209e-09 0)
(526.167 -2.52606e-09 0)
(526.596 -2.19766e-09 0)
(527.144 1.12383e-09 0)
(527.939 -3.25482e-09 0)
(527.784 -3.5615e-09 0)
(525.301 -2.52464e-09 0)
(525.079 1.26992e-10 0)
(525.317 6.53162e-11 0)
(525.365 1.67939e-10 0)
(525.474 2.02183e-10 0)
(525.655 1.23162e-10 0)
(525.873 -1.06466e-10 0)
(526.316 6.57482e-10 0)
(526.998 5.41645e-10 0)
(526.907 1.9876e-10 0)
(526.833 1.36589e-10 0)
(526.727 7.82523e-10 0)
(526.507 8.48467e-10 0)
(526.2 7.44125e-10 0)
(525.858 1.24231e-09 0)
(525.383 3.65592e-09 0)
(524.932 4.87532e-09 0)
(524.847 5.73288e-09 0)
(524.849 7.22968e-09 0)
(524.896 9.39245e-09 0)
(525.034 6.94512e-09 0)
(525.269 -3.12087e-10 0)
(525.606 -1.78558e-09 0)
(526.224 -3.85271e-09 0)
(526.886 -5.58336e-09 0)
(527.145 -1.12485e-08 0)
(527.187 -1.4467e-08 0)
(527.192 -1.58114e-08 0)
(527.093 -1.46898e-09 0)
(526.774 2.61005e-08 0)
(526.227 2.10307e-08 0)
(525.645 -1.38741e-08 0)
(525.218 4.54553e-09 0)
(524.71 -2.26137e-08 0)
(522.385 3.0005e-08 0)
(503.362 -1.27158e-07 0)
(382.445 -4.82534e-08 0)
(84.7962 -1.08668e-08 0)
(0.706096 -1.1564e-10 0)
(0.000117813 6.95146e-13 0)
(9.30564e-10 9.75032e-14 0)
(5.7765e-14 -2.81686e-15 0)
(-3.28805e-13 -4.57554e-14 0)
(-2.3628e-13 1.26052e-13 0)
(-3.47788e-13 -1.48974e-13 0)
(-6.81719e-13 -3.24267e-13 0)
(-3.50397e-13 -6.98538e-13 0)
(-1.67483e-13 -7.26942e-13 0)
(2.63952e-13 -6.63151e-13 0)
(5.19097e-14 -4.85672e-13 0)
(-1.40611e-13 -4.51721e-13 0)
(4.63778e-13 -4.15023e-13 0)
(6.95985e-13 -1.49501e-13 0)
(4.27284e-13 9.92085e-14 0)
(526.043 -2.71083e-11 0)
(526.035 7.33917e-11 0)
(526.024 1.31204e-10 0)
(526.006 1.13786e-10 0)
(525.987 1.65629e-10 0)
(525.969 1.14771e-10 0)
(525.937 -2.26695e-10 0)
(525.886 -7.47442e-10 0)
(525.836 -6.86904e-10 0)
(525.828 -6.78515e-11 0)
(525.916 -9.88709e-10 0)
(526.167 -3.13397e-09 0)
(526.596 -1.87233e-09 0)
(527.144 3.20429e-10 0)
(527.939 1.60018e-09 0)
(527.784 -2.68183e-09 0)
(525.301 8.58563e-10 0)
(525.079 4.59173e-09 0)
(525.317 5.37202e-09 0)
(525.365 5.59887e-09 0)
(525.474 5.02611e-09 0)
(525.655 3.37461e-09 0)
(525.873 3.08491e-09 0)
(526.316 1.50089e-09 0)
(526.998 -2.83244e-09 0)
(526.907 -5.55838e-09 0)
(526.833 -6.3115e-09 0)
(526.727 -6.84189e-09 0)
(526.507 -5.73738e-09 0)
(526.2 -5.42838e-09 0)
(525.858 -3.09719e-09 0)
(525.383 5.86599e-10 0)
(524.932 3.3714e-09 0)
(524.847 5.18466e-09 0)
(524.849 7.34391e-09 0)
(524.896 9.6836e-09 0)
(525.034 8.34789e-09 0)
(525.269 1.14943e-09 0)
(525.606 -5.70695e-09 0)
(526.224 -1.01811e-08 0)
(526.886 -4.67438e-09 0)
(527.145 -7.84959e-09 0)
(527.187 -6.49748e-09 0)
(527.192 2.01905e-10 0)
(527.093 3.12098e-08 0)
(526.774 1.62028e-08 0)
(526.227 5.72462e-08 0)
(525.645 -1.7448e-08 0)
(525.218 -3.5482e-08 0)
(524.71 3.99707e-08 0)
(522.385 -1.21398e-08 0)
(503.362 5.62184e-08 0)
(382.445 2.30052e-08 0)
(84.7962 2.40093e-09 0)
(0.706096 -1.1015e-10 0)
(0.000117813 -1.04078e-12 0)
(9.30462e-10 6.36604e-17 0)
(-2.35866e-13 -1.86106e-14 0)
(-2.59507e-13 8.25433e-15 0)
(-3.8421e-13 -1.39986e-14 0)
(-9.47142e-13 -3.19617e-13 0)
(-1.198e-12 -2.4188e-13 0)
(-6.03739e-13 -1.98833e-13 0)
(-2.73813e-13 1.97969e-14 0)
(3.72956e-14 -3.78312e-14 0)
(1.71605e-13 -3.47726e-13 0)
(1.97044e-13 -1.9178e-13 0)
(7.90468e-13 -2.18252e-13 0)
(9.2417e-13 -1.38871e-13 0)
(4.48806e-13 -1.67863e-13 0)
(526.043 -8.64313e-11 0)
(526.035 -1.05749e-11 0)
(526.024 -1.27797e-13 0)
(526.006 9.09595e-11 0)
(525.987 -1.62359e-10 0)
(525.969 3.73562e-10 0)
(525.937 -6.86379e-10 0)
(525.886 -1.11898e-11 0)
(525.836 2.63929e-10 0)
(525.828 -9.43295e-10 0)
(525.916 -3.68926e-09 0)
(526.167 -3.33031e-09 0)
(526.596 3.22303e-10 0)
(527.144 2.46136e-09 0)
(527.939 1.24604e-09 0)
(527.784 -3.04345e-09 0)
(525.301 1.61422e-09 0)
(525.079 6.76386e-09 0)
(525.317 7.10799e-09 0)
(525.365 7.2293e-09 0)
(525.474 6.55342e-09 0)
(525.655 6.01101e-09 0)
(525.873 5.98279e-09 0)
(526.316 3.15036e-09 0)
(526.998 -4.23934e-09 0)
(526.907 -8.61332e-09 0)
(526.833 -1.02144e-08 0)
(526.727 -1.17385e-08 0)
(526.507 -1.04884e-08 0)
(526.2 -9.14375e-09 0)
(525.858 -7.5623e-09 0)
(525.383 -4.66045e-09 0)
(524.932 -1.34771e-10 0)
(524.847 2.64265e-09 0)
(524.849 4.19616e-09 0)
(524.896 7.144e-09 0)
(525.034 8.65186e-09 0)
(525.269 6.54587e-09 0)
(525.606 -4.46324e-09 0)
(526.224 -5.48719e-09 0)
(526.886 3.28142e-09 0)
(527.145 7.71894e-09 0)
(527.187 1.24762e-08 0)
(527.192 2.7623e-08 0)
(527.093 2.95006e-08 0)
(526.774 -2.25005e-08 0)
(526.227 -3.54176e-08 0)
(525.645 -6.94714e-10 0)
(525.218 -1.94298e-08 0)
(524.71 2.00115e-08 0)
(522.385 1.12731e-07 0)
(503.362 3.87694e-07 0)
(382.445 2.06348e-07 0)
(84.7962 3.0967e-08 0)
(0.706096 4.54438e-10 0)
(0.000117813 9.44078e-14 0)
(9.3067e-10 -1.79701e-13 0)
(1.38209e-13 -3.02471e-13 0)
(-3.73918e-13 -1.37798e-13 0)
(-7.82955e-13 -2.01631e-13 0)
(-7.95463e-13 2.94682e-14 0)
(-5.71198e-13 2.05225e-13 0)
(-1.72081e-13 2.41992e-13 0)
(-3.00981e-13 2.43354e-13 0)
(-8.05369e-13 1.50767e-13 0)
(-3.89829e-13 -1.02273e-13 0)
(1.37944e-14 -2.27477e-13 0)
(4.77011e-13 -1.00381e-13 0)
(8.85981e-13 -2.59312e-13 0)
(7.09338e-13 -4.10085e-13 0)
(526.043 -4.11454e-11 0)
(526.035 -5.05186e-11 0)
(526.024 -1.78294e-11 0)
(526.006 -2.68946e-10 0)
(525.987 -5.45318e-10 0)
(525.969 -4.76648e-10 0)
(525.937 3.35926e-10 0)
(525.886 -1.96084e-09 0)
(525.836 -2.44132e-09 0)
(525.828 -1.85448e-09 0)
(525.916 -1.14005e-09 0)
(526.167 8.36815e-10 0)
(526.596 2.95631e-09 0)
(527.144 3.02402e-09 0)
(527.939 6.94648e-10 0)
(527.784 -4.05389e-10 0)
(525.301 2.44093e-09 0)
(525.079 5.15361e-09 0)
(525.317 5.66628e-09 0)
(525.365 5.75669e-09 0)
(525.474 5.46077e-09 0)
(525.655 5.68176e-09 0)
(525.873 7.17263e-09 0)
(526.316 5.39141e-09 0)
(526.998 -2.01285e-09 0)
(526.907 -7.64117e-09 0)
(526.833 -9.82755e-09 0)
(526.727 -1.21075e-08 0)
(526.507 -1.21433e-08 0)
(526.2 -9.4979e-09 0)
(525.858 -7.59034e-09 0)
(525.383 -4.97981e-09 0)
(524.932 -2.32533e-09 0)
(524.847 -9.14082e-10 0)
(524.849 -5.59325e-10 0)
(524.896 1.5408e-10 0)
(525.034 4.40137e-09 0)
(525.269 7.12316e-09 0)
(525.606 5.60497e-09 0)
(526.224 1.04663e-08 0)
(526.886 1.21034e-08 0)
(527.145 1.58717e-08 0)
(527.187 2.17084e-08 0)
(527.192 4.21057e-08 0)
(527.093 -2.05334e-08 0)
(526.774 -6.98116e-08 0)
(526.227 -5.25067e-08 0)
(525.645 6.18667e-08 0)
(525.218 4.15174e-08 0)
(524.71 -2.29265e-08 0)
(522.385 -5.73814e-08 0)
(503.362 -2.97038e-07 0)
(382.445 -2.72471e-07 0)
(84.7962 -3.12155e-08 0)
(0.706096 -5.19508e-10 0)
(0.000117813 6.84699e-13 0)
(9.30081e-10 -2.82298e-13 0)
(7.74159e-14 -2.92986e-13 0)
(-5.24258e-14 -3.25912e-14 0)
(-8.49554e-14 1.51669e-13 0)
(-3.49544e-13 3.01429e-13 0)
(-8.04662e-13 3.40505e-13 0)
(-5.03432e-13 2.59112e-13 0)
(-6.49972e-13 6.47953e-14 0)
(-9.23597e-13 -6.32656e-14 0)
(-5.36176e-13 6.84136e-15 0)
(2.26127e-13 -2.25496e-13 0)
(6.38633e-13 -3.02762e-13 0)
(3.96719e-13 -4.14018e-13 0)
(-1.15456e-13 -5.13497e-13 0)
(526.043 7.38435e-11 0)
(526.035 -1.11282e-10 0)
(526.024 -6.34142e-11 0)
(526.006 -5.5229e-10 0)
(525.987 -1.03125e-09 0)
(525.969 1.94503e-10 0)
(525.937 3.54096e-10 0)
(525.886 -6.56174e-10 0)
(525.836 -6.40441e-10 0)
(525.828 -2.45626e-09 0)
(525.916 -8.24284e-10 0)
(526.167 9.37679e-10 0)
(526.596 7.59616e-09 0)
(527.144 -5.57583e-09 0)
(527.939 -9.81395e-09 0)
(527.784 -5.763e-09 0)
(525.301 -6.52001e-11 0)
(525.079 6.46132e-10 0)
(525.317 7.71308e-10 0)
(525.365 1.4386e-09 0)
(525.474 2.70175e-09 0)
(525.655 4.09343e-09 0)
(525.873 7.39564e-09 0)
(526.316 6.8395e-09 0)
(526.998 4.22516e-09 0)
(526.907 6.95896e-10 0)
(526.833 -1.0329e-09 0)
(526.727 -4.7823e-09 0)
(526.507 -6.7511e-09 0)
(526.2 -3.32699e-09 0)
(525.858 -1.9927e-09 0)
(525.383 -3.97951e-09 0)
(524.932 -3.54837e-09 0)
(524.847 -5.3362e-09 0)
(524.849 -6.7976e-09 0)
(524.896 -7.57365e-09 0)
(525.034 -4.30054e-09 0)
(525.269 2.09027e-10 0)
(525.606 6.73783e-09 0)
(526.224 2.10072e-08 0)
(526.886 1.41179e-08 0)
(527.145 1.41147e-08 0)
(527.187 1.57526e-08 0)
(527.192 9.57285e-09 0)
(527.093 -4.00101e-08 0)
(526.774 4.16195e-09 0)
(526.227 1.69216e-08 0)
(525.645 1.21865e-09 0)
(525.218 2.17826e-08 0)
(524.71 -1.91022e-08 0)
(522.385 -1.03104e-07 0)
(503.362 -1.75892e-07 0)
(382.445 2.83867e-07 0)
(84.7962 2.41985e-08 0)
(0.706096 2.8549e-10 0)
(0.000117813 -4.84114e-13 0)
(9.30324e-10 1.39974e-13 0)
(7.94125e-13 2.1686e-13 0)
(3.14761e-13 -4.72732e-14 0)
(-3.32129e-13 -1.01638e-13 0)
(-2.83517e-13 -1.90621e-13 0)
(-4.72701e-13 -6.82594e-14 0)
(-6.58239e-13 -1.53308e-13 0)
(-7.75678e-13 -2.76142e-13 0)
(-7.29165e-13 -3.98453e-13 0)
(-7.01763e-13 -3.54461e-13 0)
(-5.99933e-13 -5.03437e-13 0)
(1.07677e-13 -6.80773e-13 0)
(4.33351e-13 -5.46593e-13 0)
(4.25498e-13 -4.2284e-13 0)
(526.043 9.84597e-11 0)
(526.035 -2.02863e-10 0)
(526.024 -2.53549e-10 0)
(526.006 -5.32127e-10 0)
(525.987 -7.71016e-10 0)
(525.969 1.30754e-09 0)
(525.937 3.91779e-10 0)
(525.886 3.05224e-09 0)
(525.836 4.94198e-09 0)
(525.828 3.70154e-10 0)
(525.916 1.12361e-08 0)
(526.167 1.16309e-08 0)
(526.596 -1.09052e-08 0)
(527.144 5.67249e-09 0)
(527.939 1.1292e-08 0)
(527.784 1.16271e-08 0)
(525.301 5.78731e-09 0)
(525.079 -6.50931e-09 0)
(525.317 -7.40226e-09 0)
(525.365 -5.97242e-09 0)
(525.474 -4.09156e-09 0)
(525.655 -4.06422e-10 0)
(525.873 -4.88359e-10 0)
(526.316 -1.18538e-09 0)
(526.998 3.25912e-09 0)
(526.907 5.78497e-09 0)
(526.833 5.7061e-09 0)
(526.727 5.44502e-09 0)
(526.507 6.4278e-09 0)
(526.2 4.14827e-09 0)
(525.858 3.27877e-09 0)
(525.383 -3.94959e-09 0)
(524.932 -6.80484e-09 0)
(524.847 -1.03593e-08 0)
(524.849 -1.36491e-08 0)
(524.896 -1.72786e-08 0)
(525.034 -1.05739e-08 0)
(525.269 9.91844e-11 0)
(525.606 6.83985e-09 0)
(526.224 1.46363e-08 0)
(526.886 1.22917e-08 0)
(527.145 7.65658e-09 0)
(527.187 1.24843e-09 0)
(527.192 -3.11449e-08 0)
(527.093 1.12598e-08 0)
(526.774 4.25568e-08 0)
(526.227 1.38932e-09 0)
(525.645 -1.01858e-08 0)
(525.218 -4.30672e-09 0)
(524.71 1.97174e-08 0)
(522.385 2.1816e-08 0)
(503.362 2.1625e-07 0)
(382.445 9.04136e-08 0)
(84.7962 2.05766e-08 0)
(0.706096 7.32408e-10 0)
(0.000117813 1.90966e-13 0)
(9.30349e-10 3.23878e-13 0)
(-5.22371e-13 1.61414e-13 0)
(-7.44353e-13 -1.62371e-13 0)
(-5.79832e-13 -3.67625e-13 0)
(-1.05214e-13 -4.01598e-13 0)
(-3.45449e-13 -4.95011e-13 0)
(-6.34144e-13 -4.77574e-13 0)
(-1.00797e-12 -4.71673e-13 0)
(-9.96811e-13 -4.6259e-13 0)
(-6.06061e-13 -4.65937e-13 0)
(-3.80528e-13 -8.42169e-14 0)
(3.66695e-13 -1.01335e-13 0)
(6.87817e-13 -6.85446e-15 0)
(1.74825e-13 -1.27904e-13 0)
(526.043 1.91362e-11 0)
(526.035 2.2044e-11 0)
(526.024 -1.01068e-11 0)
(526.006 4.92834e-11 0)
(525.987 6.52637e-10 0)
(525.969 -1.85291e-09 0)
(525.937 3.77426e-09 0)
(525.886 -7.80494e-10 0)
(525.836 4.59684e-09 0)
(525.828 6.59069e-09 0)
(525.916 -4.90792e-09 0)
(526.167 2.52582e-09 0)
(526.596 1.6989e-09 0)
(527.144 -6.71494e-09 0)
(527.939 -1.0283e-08 0)
(527.784 -1.2109e-09 0)
(525.301 -1.30756e-08 0)
(525.079 -1.08201e-08 0)
(525.317 -9.88095e-09 0)
(525.365 -9.89174e-09 0)
(525.474 -6.71364e-09 0)
(525.655 -3.02195e-09 0)
(525.873 -6.755e-09 0)
(526.316 -7.67532e-09 0)
(526.998 -1.4208e-09 0)
(526.907 6.03543e-09 0)
(526.833 9.57425e-09 0)
(526.727 1.3387e-08 0)
(526.507 1.30906e-08 0)
(526.2 1.22815e-08 0)
(525.858 7.27542e-09 0)
(525.383 9.36875e-11 0)
(524.932 -7.51395e-09 0)
(524.847 -1.2789e-08 0)
(524.849 -1.67176e-08 0)
(524.896 -2.09635e-08 0)
(525.034 -1.10606e-08 0)
(525.269 -8.84692e-10 0)
(525.606 6.06666e-09 0)
(526.224 6.33195e-09 0)
(526.886 8.00989e-09 0)
(527.145 5.99071e-09 0)
(527.187 -5.27554e-09 0)
(527.192 -1.72764e-08 0)
(527.093 1.82652e-08 0)
(526.774 -5.8823e-09 0)
(526.227 -1.21251e-09 0)
(525.645 -2.5669e-08 0)
(525.218 4.34455e-08 0)
(524.71 1.03948e-08 0)
(522.385 -5.23158e-08 0)
(503.362 -1.25725e-07 0)
(382.445 -4.03165e-07 0)
(84.7962 -4.5483e-08 0)
(0.706096 -1.03518e-09 0)
(0.000117813 -3.68391e-13 0)
(9.30592e-10 -9.06323e-14 0)
(-7.46978e-14 -7.17191e-14 0)
(-8.04398e-13 6.48411e-14 0)
(-1.1853e-12 -7.15077e-15 0)
(-7.80763e-13 -2.0775e-13 0)
(-5.77292e-13 -4.14736e-13 0)
(-4.63796e-13 -4.84432e-13 0)
(-4.51347e-13 -4.86093e-13 0)
(-4.53169e-13 -1.76474e-13 0)
(-3.59436e-14 -9.17981e-14 0)
(2.91364e-14 3.05563e-14 0)
(2.32598e-13 7.76167e-14 0)
(2.46594e-13 6.20999e-14 0)
(3.88633e-13 6.22023e-14 0)
(526.043 -1.7181e-10 0)
(526.035 -2.69816e-10 0)
(526.024 -3.16929e-10 0)
(526.006 3.60889e-10 0)
(525.987 4.46451e-10 0)
(525.969 -9.68518e-10 0)
(525.937 -9.28235e-10 0)
(525.886 5.16936e-09 0)
(525.836 -1.21195e-08 0)
(525.828 -7.89605e-09 0)
(525.916 1.05832e-08 0)
(526.167 3.33201e-10 0)
(526.596 1.22164e-08 0)
(527.144 4.24201e-10 0)
(527.939 -2.41297e-09 0)
(527.784 -5.99769e-09 0)
(525.301 -2.74314e-09 0)
(525.079 -4.59554e-09 0)
(525.317 -5.63094e-09 0)
(525.365 -5.48054e-09 0)
(525.474 -4.67601e-09 0)
(525.655 -8.47472e-09 0)
(525.873 -1.25974e-08 0)
(526.316 -1.40148e-08 0)
(526.998 -8.13762e-09 0)
(526.907 -3.06109e-10 0)
(526.833 3.99226e-09 0)
(526.727 9.3419e-09 0)
(526.507 1.16439e-08 0)
(526.2 1.13659e-08 0)
(525.858 6.67702e-09 0)
(525.383 1.10209e-09 0)
(524.932 -5.98379e-09 0)
(524.847 -7.98479e-09 0)
(524.849 -9.4398e-09 0)
(524.896 -1.16093e-08 0)
(525.034 -1.25047e-08 0)
(525.269 6.79896e-11 0)
(525.606 -5.66075e-10 0)
(526.224 2.76809e-09 0)
(526.886 7.24817e-09 0)
(527.145 1.03134e-08 0)
(527.187 3.57982e-09 0)
(527.192 1.17094e-08 0)
(527.093 6.02484e-11 0)
(526.774 -1.82208e-08 0)
(526.227 -3.08438e-08 0)
(525.645 4.1967e-08 0)
(525.218 1.17216e-08 0)
(524.71 -3.4136e-08 0)
(522.385 6.27838e-08 0)
(503.362 2.1745e-08 0)
(382.445 -2.14688e-08 0)
(84.7962 -8.29472e-09 0)
(0.706096 -2.74244e-10 0)
(0.000117813 -7.92197e-13 0)
(9.30813e-10 -2.88482e-13 0)
(6.90658e-14 -3.83453e-13 0)
(-6.45905e-13 -2.63413e-13 0)
(-1.31645e-12 -4.29357e-13 0)
(-1.30223e-12 -3.61706e-13 0)
(-1.01148e-12 -3.38853e-13 0)
(-8.10129e-13 -1.50056e-13 0)
(-1.83313e-13 -2.25289e-14 0)
(2.59519e-13 1.32446e-13 0)
(-1.54642e-13 1.87723e-13 0)
(-1.23882e-13 1.62719e-13 0)
(3.61645e-13 3.25107e-13 0)
(6.59191e-13 3.87301e-13 0)
(3.01299e-13 6.26404e-13 0)
(526.043 -1.59577e-10 0)
(526.035 -1.90371e-10 0)
(526.024 -3.25129e-10 0)
(526.006 2.95407e-12 0)
(525.987 -1.05931e-10 0)
(525.969 -7.00391e-10 0)
(525.937 6.81124e-10 0)
(525.886 1.37687e-10 0)
(525.836 2.19614e-09 0)
(525.828 9.91389e-09 0)
(525.916 -4.25534e-09 0)
(526.167 -5.63431e-09 0)
(526.596 -1.1264e-08 0)
(527.144 -1.87289e-08 0)
(527.939 -1.28845e-09 0)
(527.784 8.03174e-09 0)
(525.301 3.25379e-09 0)
(525.079 1.64481e-09 0)
(525.317 1.8563e-09 0)
(525.365 1.88507e-10 0)
(525.474 -3.84067e-09 0)
(525.655 -7.7179e-09 0)
(525.873 -1.20202e-08 0)
(526.316 -1.12832e-08 0)
(526.998 -8.3176e-09 0)
(526.907 -5.4184e-09 0)
(526.833 -3.01187e-09 0)
(526.727 -1.2967e-09 0)
(526.507 -3.161e-10 0)
(526.2 -2.61989e-09 0)
(525.858 -2.57844e-09 0)
(525.383 -8.84014e-10 0)
(524.932 1.04361e-09 0)
(524.847 4.31302e-09 0)
(524.849 6.86559e-09 0)
(524.896 7.55903e-09 0)
(525.034 -2.65625e-11 0)
(525.269 -6.331e-09 0)
(525.606 1.58175e-09 0)
(526.224 -2.00102e-10 0)
(526.886 -2.10362e-09 0)
(527.145 8.90014e-09 0)
(527.187 1.38808e-08 0)
(527.192 4.27608e-10 0)
(527.093 -2.10857e-08 0)
(526.774 2.97013e-08 0)
(526.227 -7.67789e-09 0)
(525.645 5.56885e-09 0)
(525.218 -1.19271e-08 0)
(524.71 2.02605e-09 0)
(522.385 -1.27707e-08 0)
(503.362 2.45268e-07 0)
(382.445 2.48893e-07 0)
(84.7962 5.95586e-08 0)
(0.706096 8.81211e-10 0)
(0.000117813 8.15497e-14 0)
(9.30308e-10 -2.52869e-13 0)
(-1.66773e-13 -2.16061e-13 0)
(-9.24893e-13 -2.06586e-13 0)
(-1.10575e-12 -1.87602e-13 0)
(-7.6264e-13 -6.55392e-14 0)
(-4.36246e-13 -1.53938e-14 0)
(-1.53781e-13 1.27176e-13 0)
(-6.97945e-14 3.63699e-13 0)
(6.23179e-14 5.81676e-13 0)
(1.6082e-15 5.50583e-13 0)
(1.10171e-13 9.14528e-13 0)
(5.90995e-13 9.86997e-13 0)
(8.11316e-13 8.4254e-13 0)
(4.16766e-13 7.91434e-13 0)
(526.043 5.90383e-12 0)
(526.035 3.95429e-10 0)
(526.024 3.27789e-10 0)
(526.006 3.88841e-10 0)
(525.987 1.02019e-09 0)
(525.969 1.16884e-09 0)
(525.937 -2.1117e-09 0)
(525.886 -6.47356e-09 0)
(525.836 -5.4906e-09 0)
(525.828 -1.5348e-08 0)
(525.916 -7.24829e-09 0)
(526.167 4.23486e-09 0)
(526.596 1.25692e-08 0)
(527.144 9.11124e-09 0)
(527.939 6.14602e-09 0)
(527.784 4.17069e-09 0)
(525.301 -1.91376e-09 0)
(525.079 5.83527e-10 0)
(525.317 7.40762e-10 0)
(525.365 1.09142e-09 0)
(525.474 -2.47867e-10 0)
(525.655 -2.63023e-09 0)
(525.873 -4.65587e-10 0)
(526.316 2.95901e-09 0)
(526.998 4.10309e-10 0)
(526.907 -3.71584e-09 0)
(526.833 -6.83373e-09 0)
(526.727 -8.91518e-09 0)
(526.507 -1.356e-08 0)
(526.2 -1.53623e-08 0)
(525.858 -1.32926e-08 0)
(525.383 -3.49543e-09 0)
(524.932 5.0589e-09 0)
(524.847 1.24565e-08 0)
(524.849 1.62108e-08 0)
(524.896 2.20712e-08 0)
(525.034 1.54982e-08 0)
(525.269 -4.25042e-10 0)
(525.606 1.63142e-09 0)
(526.224 -8.97767e-09 0)
(526.886 -1.15238e-08 0)
(527.145 -1.45874e-09 0)
(527.187 -6.33595e-09 0)
(527.192 -2.39435e-08 0)
(527.093 -7.48654e-09 0)
(526.774 -1.44367e-09 0)
(526.227 3.37699e-08 0)
(525.645 -3.67709e-08 0)
(525.218 -3.71493e-08 0)
(524.71 6.71965e-08 0)
(522.385 1.03113e-07 0)
(503.362 -2.03539e-07 0)
(382.445 1.86643e-07 0)
(84.7962 -1.45516e-08 0)
(0.706096 3.31407e-10 0)
(0.000117813 -3.27865e-14 0)
(9.30726e-10 -3.61902e-13 0)
(-9.10648e-14 -2.94309e-13 0)
(-5.24277e-13 -3.58119e-13 0)
(-8.01784e-13 -1.88722e-13 0)
(-8.98619e-13 -2.01143e-13 0)
(-6.98156e-13 -1.14024e-13 0)
(-1.7865e-13 2.96472e-14 0)
(5.51397e-13 2.15017e-13 0)
(5.21418e-13 3.64553e-13 0)
(6.75671e-13 6.38636e-13 0)
(7.82484e-13 7.33405e-13 0)
(1.93202e-13 6.70762e-13 0)
(1.56223e-13 4.00015e-13 0)
(6.44686e-13 2.22019e-13 0)
(526.043 2.06981e-10 0)
(526.035 5.51192e-10 0)
(526.024 5.67521e-10 0)
(526.006 7.19579e-10 0)
(525.987 1.59897e-10 0)
(525.969 9.74456e-10 0)
(525.937 -4.78003e-10 0)
(525.886 1.72978e-09 0)
(525.836 -6.77294e-09 0)
(525.828 -8.73885e-09 0)
(525.916 -4.32089e-09 0)
(526.167 -1.51606e-08 0)
(526.596 -1.80816e-08 0)
(527.144 2.5784e-08 0)
(527.939 1.52136e-08 0)
(527.784 -9.49005e-09 0)
(525.301 -2.46512e-09 0)
(525.079 3.01493e-09 0)
(525.317 3.87738e-09 0)
(525.365 3.74098e-09 0)
(525.474 3.38175e-09 0)
(525.655 5.94338e-09 0)
(525.873 9.6249e-09 0)
(526.316 9.39854e-09 0)
(526.998 3.63899e-09 0)
(526.907 -4.00644e-09 0)
(526.833 -9.07494e-09 0)
(526.727 -1.5881e-08 0)
(526.507 -1.86046e-08 0)
(526.2 -1.98858e-08 0)
(525.858 -1.49241e-08 0)
(525.383 -6.08747e-09 0)
(524.932 4.81387e-09 0)
(524.847 9.76445e-09 0)
(524.849 1.32938e-08 0)
(524.896 2.29908e-08 0)
(525.034 2.22796e-08 0)
(525.269 9.12187e-09 0)
(525.606 -6.54897e-09 0)
(526.224 -1.005e-08 0)
(526.886 -1.17829e-08 0)
(527.145 -1.72288e-08 0)
(527.187 -2.78906e-08 0)
(527.192 -1.85559e-09 0)
(527.093 7.04703e-09 0)
(526.774 -7.91914e-08 0)
(526.227 -3.07566e-11 0)
(525.645 1.81655e-09 0)
(525.218 -1.03235e-08 0)
(524.71 1.10229e-08 0)
(522.385 7.61711e-10 0)
(503.362 1.91668e-07 0)
(382.445 -5.56665e-08 0)
(84.7962 -8.78225e-09 0)
(0.706096 -4.48662e-11 0)
(0.000117813 -7.12102e-13 0)
(9.3018e-10 -4.39071e-14 0)
(-3.99245e-13 -2.22407e-13 0)