/*--------------------------------*- C++ -*----------------------------------*\
| =========                 |                                                 |
| \\      /  F ield         | OpenFOAM: The Open Source CFD Toolbox           |
|  \\    /   O peration     | Version:  2306                                  |
|   \\  /    A nd           | Website:  www.openfoam.com                      |
|    \\/     M anipulation  |                                                 |
\*---------------------------------------------------------------------------*/
FoamFile
{
    version     2.0;
    format      ascii;
    arch        "LSB;label=32;scalar=64";
    class       volVectorField;
    location    "0.0001";
    object      U;
}
// * * * * * * * * * * * * * * * * * * * * * * * * * * * * * * * * * * * * * //

dimensions      [0 1 -1 0 0 0 0];

internalField   nonuniform List<vector> 
9044
(
(580 -1.43858e-12 0)
(580 -1.5582e-12 0)
(580 -1.87099e-12 0)
(580 -2.11613e-12 0)
(580 -2.28287e-12 0)
(580 -2.32868e-12 0)
(580 -1.52582e-12 0)
(580 -1.42997e-12 0)
(580 3.2019e-13 0)
(580 4.63014e-13 0)
(580 1.3652e-12 0)
(580 1.46631e-12 0)
(580 1.84659e-12 0)
(580 1.82047e-12 0)
(580 1.84042e-12 0)
(580 1.77353e-12 0)
(580 1.63293e-12 0)
(580 1.72507e-12 0)
(580 2.57397e-12 0)
(580 2.62518e-12 0)
(580 1.48265e-12 0)
(580 1.47952e-12 0)
(580 -3.21968e-13 0)
(580 -3.5429e-13 0)
(580 2.63503e-13 0)
(580 2.21591e-13 0)
(580 -2.61494e-12 0)
(580 -2.59598e-12 0)
(580 -2.62112e-12 0)
(580 -2.33274e-12 0)
(580 -1.41015e-12 0)
(580 -1.06781e-12 0)
(580 -7.36892e-13 0)
(580 -1.54483e-12 0)
(580 -1.78846e-12 0)
(580 -2.18239e-12 0)
(580 -2.11334e-12 0)
(580 -1.75674e-12 0)
(580 -1.55237e-12 0)
(580 -1.43084e-12 0)
(580 -1.20869e-12 0)
(580 -7.98916e-13 0)
(580 -6.21134e-13 0)
(580 -3.13913e-13 0)
(580 -2.6536e-12 0)
(580 -2.95896e-12 0)
(580 -2.95659e-12 0)
(580 -2.958e-12 0)
(580 -3.14062e-12 0)
(580 -3.31939e-12 0)
(580 -3.15998e-12 0)
(580 -2.83289e-12 0)
(580 -2.72222e-12 0)
(580 -2.7075e-12 0)
(580 -2.84256e-12 0)
(580 -3.2362e-12 0)
(580 -3.53828e-12 0)
(580 -4.05062e-12 0)
(580 -4.2682e-12 0)
(580 -4.44955e-12 0)
(580 -4.47301e-12 0)
(580 -4.27198e-12 0)
(580 -3.56643e-12 0)
(580 -3.62556e-12 0)
(580 -3.97695e-12 0)
(580 -3.94692e-12 0)
(580 -3.97725e-12 0)
(580 -3.81447e-12 0)
(580 -3.74175e-12 0)
(580 -3.66489e-12 0)
(580 -3.58343e-12 0)
(580 -3.28667e-12 0)
(580 -2.96107e-12 0)
(580 -2.9191e-12 0)
(580 -3.08951e-12 0)
(580 -2.77225e-12 0)
(580 -2.57082e-12 0)
(580 -2.092e-12 0)
(580 -1.87974e-12 0)
(580 -1.4405e-12 0)
(580 -1.50352e-12 0)
(580 -1.60337e-12 0)
(580 -1.57925e-12 0)
(580 -1.54792e-12 0)
(580 -1.83527e-12 0)
(580 -2.22511e-12 0)
(580 -2.43393e-12 0)
(580 -2.29091e-12 0)
(580 -2.1004e-12 0)
(580 -2.2295e-12 0)
(580 -2.09825e-12 0)
(580 -2.07293e-12 0)
(580 -2.00655e-12 0)
(580 -1.79144e-12 0)
(580 -1.38927e-12 0)
(580 -9.66261e-13 0)
(580 -4.28017e-13 0)
(580 -5.78351e-13 0)
(580 -2.62291e-13 0)
(580 -5.147e-13 0)
(580 -7.33995e-13 0)
(580 -1.46352e-12 0)
(580 -2.19532e-12 0)
(580 -2.28691e-12 0)
(580 -2.25995e-12 0)
(580 -2.10551e-12 0)
(580 -2.17891e-12 0)
(580 -1.40071e-12 0)
(580 -7.25543e-13 0)
(580 -6.32941e-13 0)
(580 -4.60572e-13 0)
(580 -8.35744e-14 0)
(580 -6.88289e-14 0)
(580 8.03096e-15 0)
(580 -1.40682e-12 0)
(580 -1.69367e-12 0)
(580 -2.39444e-12 0)
(580 -3.02219e-12 0)
(580 -3.62843e-12 0)
(580 -3.91893e-12 0)
(580 -3.90163e-12 0)
(580 -3.88468e-12 0)
(580 -3.50701e-12 0)
(580 -3.75672e-12 0)
(580 -3.99545e-12 0)
(580 -4.47493e-12 0)
(580 -4.57445e-12 0)
(580 -4.7595e-12 0)
(580 -4.55801e-12 0)
(580 -4.9048e-12 0)
(580 -4.93386e-12 0)
(580 -5.16684e-12 0)
(580 -5.1098e-12 0)
(580 -5.06218e-12 0)
(580 -4.59188e-12 0)
(580 -4.32341e-12 0)
(580 -4.23543e-12 0)
(580 -4.22469e-12 0)
(580 -4.1818e-12 0)
(580 -4.17794e-12 0)
(580 -3.79835e-12 0)
(580 -3.36012e-12 0)
(580 -2.63676e-12 0)
(580 -2.28716e-12 0)
(580 -2.40248e-12 0)
(580 -2.46069e-12 0)
(580 -2.13697e-12 0)
(580 -1.97165e-12 0)
(580 -1.83156e-12 0)
(580 -1.57811e-12 0)
(580 -1.17861e-12 0)
(580 -9.65757e-13 0)
(580 -9.47732e-13 0)
(580 -1.22036e-12 0)
(580 -1.23261e-12 0)
(580 -1.135e-12 0)
(580 -8.57224e-13 0)
(580 -7.32836e-13 0)
(580 -5.64725e-13 0)
(580 -6.56983e-13 0)
(580 -1.05846e-12 0)
(580 -1.28606e-12 0)
(580 -1.71566e-12 0)
(580 -1.74466e-12 0)
(580 -1.65715e-12 0)
(580 -1.7264e-12 0)
(580 -1.69498e-12 0)
(580 -1.85058e-12 0)
(580 -1.93158e-12 0)
(580 -1.39307e-12 0)
(580 -1.09279e-12 0)
(580 -1.11791e-12 0)
(580 -1.31511e-12 0)
(580 -1.57997e-12 0)
(580 -1.47304e-12 0)
(580 -9.65905e-13 0)
(580 -1.21796e-12 0)
(580 -1.47297e-12 0)
(580 -1.2198e-12 0)
(580 -8.1493e-13 0)
(580 -2.7248e-13 0)
(580 -7.06068e-14 0)
(580 2.86176e-13 0)
(580 7.96799e-13 0)
(580 -2.32297e-12 0)
(580 -2.70423e-12 0)
(580 -2.9817e-12 0)
(580 -3.02091e-12 0)
(580 -3.12988e-12 0)
(580 -3.26854e-12 0)
(580 -3.47854e-12 0)
(580 -3.62611e-12 0)
(580 -3.65863e-12 0)
(580 -3.7279e-12 0)
(580 -4.0495e-12 0)
(580 -4.47426e-12 0)
(580 -4.66534e-12 0)
(580 -4.82794e-12 0)
(580 -5.12973e-12 0)
(580 -5.15235e-12 0)
(580 -4.45441e-12 0)
(580 -4.39062e-12 0)
(580 -5.06706e-12 0)
(580 -5.05795e-12 0)
(580 -4.81758e-12 0)
(580 -4.98488e-12 0)
(580 -4.98737e-12 0)
(580 -5.08124e-12 0)
(580 -4.68731e-12 0)
(580 -4.33618e-12 0)
(580 -3.21511e-12 0)
(580 -2.29629e-12 0)
(580 -1.59536e-12 0)
(580 -1.18949e-12 0)
(580 -1.23303e-12 0)
(580 -1.22849e-12 0)
(580 -1.63682e-12 0)
(580 -2.00429e-12 0)
(580 -1.75097e-12 0)
(580 -2.01e-12 0)
(580 -1.81062e-12 0)
(580 -1.50773e-12 0)
(580 -1.3543e-12 0)
(580 -1.37257e-12 0)
(580 -8.04921e-13 0)
(580 -8.87756e-14 0)
(580 2.86285e-13 0)
(580 4.14683e-13 0)
(580 2.99248e-13 0)
(580 1.72119e-13 0)
(580 -3.20093e-13 0)
(580 -7.50692e-13 0)
(580 -8.70685e-13 0)
(580 -1.27784e-12 0)
(580 -1.98729e-12 0)
(580 -2.17226e-12 0)
(580 -2.33364e-12 0)
(580 -2.32447e-12 0)
(580 -2.70268e-12 0)
(580 -3.11765e-12 0)
(580 -3.50348e-12 0)
(580 -2.68859e-12 0)
(580 -2.42193e-12 0)
(580 -2.3724e-12 0)
(580 -2.07377e-12 0)
(580 -1.33325e-12 0)
(580 -1.62461e-12 0)
(580 -1.73611e-12 0)
(580 -1.96331e-12 0)
(580 -2.14811e-12 0)
(580 -1.87747e-12 0)
(580 -8.72127e-13 0)
(580 1.2901e-13 0)
(580 1.06159e-12 0)
(580 -3.05192e-12 0)
(580 -3.4545e-12 0)
(580 -3.66245e-12 0)
(580 -3.67308e-12 0)
(580 -3.63704e-12 0)
(580 -3.68995e-12 0)
(580 -3.72168e-12 0)
(580 -3.65492e-12 0)
(580 -3.96052e-12 0)
(580 -4.26521e-12 0)
(580 -4.5528e-12 0)
(580 -4.60586e-12 0)
(580 -4.82801e-12 0)
(580 -5.3186e-12 0)
(580 -5.62348e-12 0)
(580 -5.73455e-12 0)
(580 -5.52724e-12 0)
(580 -5.35282e-12 0)
(580 -5.98402e-12 0)
(580 -5.83244e-12 0)
(580 -5.7013e-12 0)
(580 -5.67777e-12 0)
(580 -5.37831e-12 0)
(580 -4.59011e-12 0)
(580 -4.29691e-12 0)
(580 -3.82305e-12 0)
(580 -3.94415e-12 0)
(580 -3.82335e-12 0)
(580 -3.60903e-12 0)
(580 -3.07337e-12 0)
(580 -2.42994e-12 0)
(580 -2.03315e-12 0)
(580 -2.02862e-12 0)
(580 -1.8266e-12 0)
(580 -1.88458e-12 0)
(580 -1.84164e-12 0)
(580 -1.8729e-12 0)
(580 -1.9526e-12 0)
(580 -1.94405e-12 0)
(580 -1.67606e-12 0)
(580 -1.43847e-12 0)
(580 -1.37032e-12 0)
(580 -1.50083e-12 0)
(580 -1.4189e-12 0)
(580 -1.01548e-12 0)
(580 -4.62577e-13 0)
(580 1.08623e-13 0)
(580 1.63499e-13 0)
(580 -1.26655e-13 0)
(580 -6.37638e-13 0)
(580 -1.02742e-12 0)
(580 -2.13438e-12 0)
(580 -2.94326e-12 0)
(580 -3.75363e-12 0)
(580 -3.94582e-12 0)
(580 -3.95927e-12 0)
(580 -4.10503e-12 0)
(580 -3.42187e-12 0)
(580 -3.02281e-12 0)
(580 -2.44449e-12 0)
(580 -2.06794e-12 0)
(580 -2.13195e-12 0)
(580 -2.28958e-12 0)
(580 -2.23009e-12 0)
(580 -2.09978e-12 0)
(580 -2.62068e-12 0)
(580 -2.53825e-12 0)
(580 -2.17745e-12 0)
(580 -1.85723e-12 0)
(580 -1.46827e-12 0)
(580 -2.47329e-12 0)
(580 -2.47187e-12 0)
(580 -3.4987e-12 0)
(580 -3.50071e-12 0)
(580 -4.12235e-12 0)
(580 -4.3608e-12 0)
(580 -4.62721e-12 0)
(580 -4.93951e-12 0)
(580 -4.80085e-12 0)
(580 -5.04738e-12 0)
(580 -5.17869e-12 0)
(580 -5.42915e-12 0)
(580 -5.60137e-12 0)
(580 -5.62016e-12 0)
(580 -5.66777e-12 0)
(580 -5.7475e-12 0)
(580 -5.90301e-12 0)
(580 -5.79527e-12 0)
(580 -5.53499e-12 0)
(580 -5.53163e-12 0)
(580 -5.17287e-12 0)
(580 -4.60195e-12 0)
(580 -4.22701e-12 0)
(580 -3.6003e-12 0)
(580 -3.47723e-12 0)
(580 -3.40652e-12 0)
(580 -3.27067e-12 0)
(580 -3.07593e-12 0)
(580 -2.98551e-12 0)
(580 -2.85856e-12 0)
(580 -2.53826e-12 0)
(580 -2.10383e-12 0)
(580 -1.74895e-12 0)
(580 -1.52062e-12 0)
(580 -1.42317e-12 0)
(580 -1.16044e-12 0)
(580 -1.24488e-12 0)
(580 -1.389e-12 0)
(580 -1.2333e-12 0)
(580 -1.0066e-12 0)
(580 -9.57264e-13 0)
(580 -1.18618e-12 0)
(580 -1.30831e-12 0)
(580 -1.30106e-12 0)
(580 -1.10833e-12 0)
(580 -9.62692e-13 0)
(580 -7.81204e-13 0)
(580 -5.84335e-13 0)
(580 -8.23567e-13 0)
(580 -8.88614e-13 0)
(580 -1.08265e-12 0)
(580 -1.59737e-12 0)
(580 -2.42424e-12 0)
(580 -2.33437e-12 0)
(580 -2.46811e-12 0)
(580 -3.25474e-12 0)
(580 -3.53267e-12 0)
(580 -3.55514e-12 0)
(580 -3.45445e-12 0)
(580 -3.33197e-12 0)
(580 -3.12056e-12 0)
(580 -2.94271e-12 0)
(580 -2.64903e-12 0)
(580 -2.10325e-12 0)
(580 -1.8342e-12 0)
(580 -1.76665e-12 0)
(580 -1.67304e-12 0)
(580 -2.54013e-12 0)
(580 -2.66285e-12 0)
(580 -2.8671e-12 0)
(580 -2.4934e-12 0)
(580 -3.06368e-12 0)
(580 -3.09229e-12 0)
(580 -3.1648e-12 0)
(580 -3.82097e-12 0)
(580 -4.51236e-12 0)
(580 -5.16813e-12 0)
(580 -5.6722e-12 0)
(580 -6.22981e-12 0)
(580 -5.42953e-12 0)
(580 -5.56359e-12 0)
(580 -5.8081e-12 0)
(580 -5.84323e-12 0)
(580 -5.92628e-12 0)
(580 -6.12368e-12 0)
(580 -6.1938e-12 0)
(580 -6.18574e-12 0)
(580 -6.04599e-12 0)
(580 -5.30584e-12 0)
(580 -4.15823e-12 0)
(580 -3.0402e-12 0)
(580 -2.61493e-12 0)
(580 -2.29489e-12 0)
(580 -2.25491e-12 0)
(580 -1.97208e-12 0)
(580 -1.75584e-12 0)
(580 -1.73959e-12 0)
(580 -1.55608e-12 0)
(580 -1.50262e-12 0)
(580 -1.40457e-12 0)
(580 -2.07502e-12 0)
(580 -2.37882e-12 0)
(580 -2.20719e-12 0)
(580 -1.76294e-12 0)
(580 -1.58067e-12 0)
(580 -1.60692e-12 0)
(580 -1.62996e-12 0)
(580 -1.61517e-12 0)
(580 -1.12922e-12 0)
(580 -5.33336e-13 0)
(580 -5.39103e-13 0)
(580 -6.77446e-13 0)
(580 -6.35728e-13 0)
(580 -7.99023e-13 0)
(580 -1.01136e-12 0)
(580 -1.18476e-12 0)
(580 -1.19636e-12 0)
(580 -1.01238e-12 0)
(580 -1.61908e-12 0)
(580 -1.87171e-12 0)
(580 -2.29533e-12 0)
(580 -2.51311e-12 0)
(580 -2.40071e-12 0)
(580 -2.58867e-12 0)
(580 -2.73708e-12 0)
(580 -2.94407e-12 0)
(580 -3.29052e-12 0)
(580 -3.1138e-12 0)
(580 -2.86873e-12 0)
(580 -3.08916e-12 0)
(580 -3.738e-12 0)
(580 -3.41443e-12 0)
(580 -2.37678e-12 0)
(580 -6.38285e-13 0)
(580 2.5481e-13 0)
(580 7.68971e-14 0)
(580 -5.04577e-13 0)
(580 -1.06211e-12 0)
(580 -2.1311e-12 0)
(580 -3.09495e-12 0)
(580 -2.84167e-12 0)
(580 -3.31925e-12 0)
(580 -3.44518e-12 0)
(580 -3.77486e-12 0)
(580 -4.33318e-12 0)
(580 -4.98675e-12 0)
(580 -5.62329e-12 0)
(580 -6.10719e-12 0)
(580 -6.2397e-12 0)
(580 -6.39206e-12 0)
(580 -6.23837e-12 0)
(580 -6.15945e-12 0)
(580 -5.75348e-12 0)
(580 -5.50093e-12 0)
(580 -5.36434e-12 0)
(580 -5.69313e-12 0)
(580 -5.71355e-12 0)
(580 -5.63963e-12 0)
(580 -4.96461e-12 0)
(580 -4.60171e-12 0)
(580 -3.92089e-12 0)
(580 -2.97184e-12 0)
(580 -2.13217e-12 0)
(580 -1.63724e-12 0)
(580 -1.32817e-12 0)
(580 -1.21467e-12 0)
(580 -1.02883e-12 0)
(580 -9.6635e-13 0)
(580 -9.6057e-13 0)
(580 -8.82231e-13 0)
(580 -8.2621e-13 0)
(580 -9.71813e-13 0)
(580 -6.36957e-13 0)
(580 -5.53105e-13 0)
(580 -5.41123e-13 0)
(580 -5.86324e-13 0)
(580 -4.19351e-13 0)
(580 -1.83672e-13 0)
(580 -4.54307e-13 0)
(580 -6.91923e-13 0)
(580 -1.04629e-12 0)
(580 -1.20681e-12 0)
(580 -1.33941e-12 0)
(580 -1.59849e-12 0)
(580 -1.95842e-12 0)
(580 -2.53224e-12 0)
(580 -2.76849e-12 0)
(580 -2.9978e-12 0)
(580 -3.12529e-12 0)
(580 -3.16456e-12 0)
(580 -3.29501e-12 0)
(580 -3.5069e-12 0)
(580 -3.30342e-12 0)
(580 -3.44273e-12 0)
(580 -3.46243e-12 0)
(580 -3.80209e-12 0)
(580 -3.86826e-12 0)
(580 -3.7196e-12 0)
(580 -3.56124e-12 0)
(580 -3.07629e-12 0)
(580 -2.68879e-12 0)
(580 -3.01844e-12 0)
(580 -2.88468e-12 0)
(580 -1.95463e-12 0)
(580 -1.73457e-12 0)
(580 -1.26508e-12 0)
(580 -1.32112e-12 0)
(580 -1.29492e-12 0)
(580 -1.62134e-12 0)
(580 -2.051e-12 0)
(580 -2.64759e-12 0)
(580 -3.41371e-12 0)
(580 -4.18907e-12 0)
(580 -4.60192e-12 0)
(580 -4.93717e-12 0)
(580 -5.63747e-12 0)
(580 -5.86517e-12 0)
(580 -6.44726e-12 0)
(580 -7.39458e-12 0)
(580 -7.83592e-12 0)
(580 -7.35518e-12 0)
(580 -6.49193e-12 0)
(580 -5.69651e-12 0)
(580 -5.34995e-12 0)
(580 -5.10404e-12 0)
(580 -5.24068e-12 0)
(580 -5.54682e-12 0)
(580 -5.38056e-12 0)
(580 -5.70939e-12 0)
(580 -5.40627e-12 0)
(580 -5.23997e-12 0)
(580 -4.83828e-12 0)
(580 -4.03078e-12 0)
(580 -3.42143e-12 0)
(580 -3.04699e-12 0)
(580 -2.49769e-12 0)
(580 -2.18187e-12 0)
(580 -1.83817e-12 0)
(580 -1.31654e-12 0)
(580 -8.27987e-13 0)
(580 -4.27517e-13 0)
(580 -2.62933e-14 0)
(580 -1.60126e-13 0)
(580 -3.64606e-13 0)
(580 -2.42946e-13 0)
(580 -7.0461e-14 0)
(580 -1.36954e-13 0)
(580 -3.79554e-13 0)
(580 -6.16965e-13 0)
(580 -1.05201e-12 0)
(580 -1.26732e-12 0)
(580 -1.69952e-12 0)
(580 -2.02893e-12 0)
(580 -2.6431e-12 0)
(580 -2.98706e-12 0)
(580 -3.42009e-12 0)
(580 -4.11671e-12 0)
(580 -4.12487e-12 0)
(580 -3.48656e-12 0)
(580 -2.96755e-12 0)
(580 -2.87015e-12 0)
(580 -2.97229e-12 0)
(580 -3.31513e-12 0)
(580 -3.53554e-12 0)
(580 -3.65343e-12 0)
(580 -3.40129e-12 0)
(580 -3.19839e-12 0)
(580 -4.13486e-12 0)
(580 -3.84773e-12 0)
(580 -3.16099e-12 0)
(580 -2.58419e-12 0)
(580 -2.55207e-12 0)
(580 -2.47958e-12 0)
(580 -2.35961e-12 0)
(580 -2.18108e-12 0)
(580 -2.16656e-12 0)
(580 -2.14789e-12 0)
(580 -2.76466e-12 0)
(580 -3.1764e-12 0)
(580 -3.1564e-12 0)
(580 -4.41176e-12 0)
(580 -5.11357e-12 0)
(580 -5.3974e-12 0)
(580 -5.62629e-12 0)
(580 -6.4249e-12 0)
(580 -6.59865e-12 0)
(580 -6.8345e-12 0)
(580 -6.97445e-12 0)
(580 -7.07047e-12 0)
(580 -7.27907e-12 0)
(580 -7.3085e-12 0)
(580 -7.15819e-12 0)
(580 -7.14895e-12 0)
(580 -7.11569e-12 0)
(580 -6.88411e-12 0)
(580 -6.54211e-12 0)
(580 -5.91532e-12 0)
(580 -5.83214e-12 0)
(580 -5.47294e-12 0)
(580 -5.36846e-12 0)
(580 -5.23059e-12 0)
(580 -5.05984e-12 0)
(580 -4.76238e-12 0)
(580 -4.22635e-12 0)
(580 -3.77811e-12 0)
(580 -2.85135e-12 0)
(580 -2.41455e-12 0)
(580 -2.28745e-12 0)
(580 -2.3062e-12 0)
(580 -2.15275e-12 0)
(580 -2.05589e-12 0)
(580 -2.05787e-12 0)
(580 -1.74148e-12 0)
(580 -1.48415e-12 0)
(580 -1.52176e-12 0)
(580 -1.20914e-12 0)
(580 -1.07001e-12 0)
(580 -1.39524e-12 0)
(580 -1.84327e-12 0)
(580 -2.06201e-12 0)
(580 -2.14832e-12 0)
(580 -2.24588e-12 0)
(580 -2.42676e-12 0)
(580 -2.83026e-12 0)
(580 -3.22122e-12 0)
(580 -3.68631e-12 0)
(580 -4.65774e-12 0)
(580 -4.94484e-12 0)
(580 -4.75848e-12 0)
(580 -4.1785e-12 0)
(580 -3.75537e-12 0)
(580 -3.51432e-12 0)
(580 -3.63031e-12 0)
(580 -3.49669e-12 0)
(580 -3.9673e-12 0)
(580 -4.07191e-12 0)
(580 -3.91704e-12 0)
(580 -3.96768e-12 0)
(580 -3.92433e-12 0)
(580 -3.19123e-12 0)
(580 -3.02288e-12 0)
(580 -3.10111e-12 0)
(580 -3.15402e-12 0)
(580 -3.18915e-12 0)
(580 -3.30669e-12 0)
(580 -3.35539e-12 0)
(580 -3.80136e-12 0)
(580 -4.17463e-12 0)
(580 -4.06934e-12 0)
(580 -4.05646e-12 0)
(580 -5.33283e-12 0)
(580 -5.46218e-12 0)
(580 -5.52035e-12 0)
(580 -5.47485e-12 0)
(580 -5.27401e-12 0)
(580 -5.0896e-12 0)
(580 -5.11102e-12 0)
(580 -4.95318e-12 0)
(580 -4.73256e-12 0)
(580 -4.49514e-12 0)
(580 -4.57993e-12 0)
(580 -5.06225e-12 0)
(580 -5.42959e-12 0)
(580 -5.61168e-12 0)
(580 -5.62066e-12 0)
(580 -5.81864e-12 0)
(580 -5.77678e-12 0)
(580 -5.62157e-12 0)
(580 -5.18458e-12 0)
(580 -5.10107e-12 0)
(580 -4.92531e-12 0)
(580 -4.74301e-12 0)
(580 -4.60399e-12 0)
(580 -4.41335e-12 0)
(580 -4.37827e-12 0)
(580 -4.08642e-12 0)
(580 -3.99707e-12 0)
(580 -4.03823e-12 0)
(580 -3.85716e-12 0)
(580 -3.57288e-12 0)
(580 -3.37108e-12 0)
(580 -3.13039e-12 0)
(580 -2.98757e-12 0)
(580 -2.97185e-12 0)
(580 -3.00093e-12 0)
(580 -2.905e-12 0)
(580 -3.09583e-12 0)
(580 -3.25576e-12 0)
(580 -3.33268e-12 0)
(580 -3.32414e-12 0)
(580 -3.52937e-12 0)
(580 -3.6988e-12 0)
(580 -4.05263e-12 0)
(580 -3.88501e-12 0)
(580 -3.85291e-12 0)
(580 -3.95459e-12 0)
(580 -3.69309e-12 0)
(580 -3.59499e-12 0)
(580 -3.96341e-12 0)
(580 -3.97395e-12 0)
(580 -3.80063e-12 0)
(580 -3.80529e-12 0)
(580 -3.59622e-12 0)
(580 -3.78833e-12 0)
(580 -3.62733e-12 0)
(580 -3.40446e-12 0)
(580 -3.17326e-12 0)
(580 -2.65595e-12 0)
(580 -1.88233e-12 0)
(580 -1.41378e-12 0)
(580 -1.70372e-12 0)
(580 -2.13337e-12 0)
(580 -2.54738e-12 0)
(580 -3.43979e-12 0)
(580 -4.36607e-12 0)
(580 -4.65069e-12 0)
(580 -4.83979e-12 0)
(580 -4.7821e-12 0)
(580 -4.75653e-12 0)
(580 -5.25257e-12 0)
(580 -2.73849e-12 0)
(580 -2.76791e-12 0)
(580 -2.62364e-12 0)
(580 -2.5309e-12 0)
(580 -2.53588e-12 0)
(580 -2.13361e-12 0)
(580 -1.93685e-12 0)
(580 -1.88146e-12 0)
(580 -1.8022e-12 0)
(580 -1.43534e-12 0)
(580 -1.14549e-12 0)
(580 -9.67192e-13 0)
(580 -9.84547e-13 0)
(580 -1.13538e-12 0)
(580 -1.33652e-12 0)
(580 -1.58488e-12 0)
(580 -1.9533e-12 0)
(580 -2.00973e-12 0)
(580 -2.112e-12 0)
(580 -2.30664e-12 0)
(580 -2.64666e-12 0)
(580 -2.7381e-12 0)
(580 -2.76855e-12 0)
(580 -2.96339e-12 0)
(580 -3.37109e-12 0)
(580 -3.46501e-12 0)
(580 -3.83663e-12 0)
(580 -3.829e-12 0)
(580 -3.73455e-12 0)
(580 -3.40614e-12 0)
(580 -3.09731e-12 0)
(580 -2.9197e-12 0)
(580 -3.31272e-12 0)
(580 -3.49178e-12 0)
(580 -3.43188e-12 0)
(580 -3.59925e-12 0)
(580 -3.85588e-12 0)
(580 -3.82545e-12 0)
(580 -3.75353e-12 0)
(580 -3.76212e-12 0)
(580 -3.74922e-12 0)
(580 -3.75647e-12 0)
(580 -3.54176e-12 0)
(580 -3.45716e-12 0)
(580 -3.38379e-12 0)
(580 -2.99557e-12 0)
(580 -2.67043e-12 0)
(580 -2.17553e-12 0)
(580 -2.12081e-12 0)
(580 -2.51962e-12 0)
(580 -2.37971e-12 0)
(580 -2.16691e-12 0)
(580 -2.03371e-12 0)
(580 -1.64127e-12 0)
(580 -1.59956e-12 0)
(580 -1.26742e-12 0)
(580 -1.1708e-12 0)
(580 -9.77193e-13 0)
(580 -7.69683e-13 0)
(580 -5.8072e-13 0)
(580 -5.47194e-13 0)
(580 -6.50314e-13 0)
(580 -1.26692e-12 0)
(580 -1.65964e-12 0)
(580 -1.98845e-12 0)
(580 -2.31344e-12 0)
(580 -2.79483e-12 0)
(580 -3.49573e-12 0)
(580 -4.27357e-12 0)
(580 -5.00887e-12 0)
(580 -1.67897e-12 0)
(580 -1.53821e-12 0)
(580 -1.42447e-12 0)
(580 -1.07878e-12 0)
(580 -6.60252e-13 0)
(580 -5.01582e-13 0)
(580 -5.63485e-13 0)
(580 -6.09958e-13 0)
(580 -4.78358e-13 0)
(580 -3.27416e-13 0)
(580 -5.21035e-13 0)
(580 -7.11748e-13 0)
(580 -1.04803e-12 0)
(580 -4.51971e-13 0)
(580 -2.9913e-13 0)
(580 -4.12702e-13 0)
(580 -7.48213e-13 0)
(580 -1.11086e-12 0)
(580 -1.235e-12 0)
(580 -1.36494e-12 0)
(580 -1.51163e-12 0)
(580 -1.9915e-12 0)
(580 -2.26299e-12 0)
(580 -2.77647e-12 0)
(580 -3.3213e-12 0)
(580 -3.17571e-12 0)
(580 -2.81507e-12 0)
(580 -2.69442e-12 0)
(580 -2.66648e-12 0)
(580 -2.87744e-12 0)
(580 -3.1628e-12 0)
(580 -3.39815e-12 0)
(580 -3.666e-12 0)
(580 -3.78401e-12 0)
(580 -3.94927e-12 0)
(580 -4.01785e-12 0)
(580 -3.75154e-12 0)
(580 -3.29595e-12 0)
(580 -3.02508e-12 0)
(580 -2.84306e-12 0)
(580 -2.55367e-12 0)
(580 -2.42244e-12 0)
(580 -2.19577e-12 0)
(580 -1.92361e-12 0)
(580 -1.75387e-12 0)
(580 -1.675e-12 0)
(580 -1.62557e-12 0)
(580 -1.59486e-12 0)
(580 -1.55048e-12 0)
(580 -1.53741e-12 0)
(580 -1.31822e-12 0)
(580 -1.23431e-12 0)
(580 -1.03452e-12 0)
(580 -5.91392e-13 0)
(580 -6.00558e-13 0)
(580 -6.43892e-13 0)
(580 -2.55631e-13 0)
(580 -5.23721e-13 0)
(580 -8.01604e-13 0)
(580 -1.19608e-12 0)
(580 -8.14024e-13 0)
(580 -7.9429e-13 0)
(580 -1.23837e-12 0)
(580 -1.74727e-12 0)
(580 -1.76379e-12 0)
(580 -1.84674e-12 0)
(580 -2.51244e-12 0)
(580 -3.60568e-12 0)
(580 -4.14996e-12 0)
(580 -5.00116e-12 0)
(580 -8.21558e-13 0)
(580 -7.9496e-13 0)
(580 -5.50776e-13 0)
(580 -3.91743e-13 0)
(580 -5.94835e-14 0)
(580 2.85711e-13 0)
(580 6.82734e-13 0)
(580 9.61124e-13 0)
(580 1.28977e-12 0)
(580 1.48164e-12 0)
(580 1.5437e-12 0)
(580 1.14716e-12 0)
(580 9.16924e-13 0)
(580 6.09469e-13 0)
(580 5.36372e-13 0)
(580 5.42569e-13 0)
(580 4.23173e-13 0)
(580 3.93079e-13 0)
(580 -5.21215e-14 0)
(580 -8.06823e-13 0)
(580 -1.1852e-12 0)
(580 -1.4817e-12 0)
(580 -1.54895e-12 0)
(580 -1.80247e-12 0)
(580 -1.72828e-12 0)
(580 -1.84484e-12 0)
(580 -2.00267e-12 0)
(580 -2.28485e-12 0)
(580 -2.84283e-12 0)
(580 -3.60034e-12 0)
(580 -3.96437e-12 0)
(580 -4.23698e-12 0)
(580 -4.11471e-12 0)
(580 -4.78645e-12 0)
(580 -4.92255e-12 0)
(580 -4.74278e-12 0)
(580 -4.76977e-12 0)
(580 -4.68766e-12 0)
(580 -4.4211e-12 0)
(580 -4.56314e-12 0)
(580 -4.67837e-12 0)
(580 -4.72954e-12 0)
(580 -4.53896e-12 0)
(580 -4.3317e-12 0)
(580 -4.26138e-12 0)
(580 -4.18094e-12 0)
(580 -3.84792e-12 0)
(580 -3.43526e-12 0)
(580 -3.02759e-12 0)
(580 -2.72944e-12 0)
(580 -2.50902e-12 0)
(580 -2.61084e-12 0)
(580 -2.60608e-12 0)
(580 -2.37593e-12 0)
(580 -2.08905e-12 0)
(580 -1.99659e-12 0)
(580 -1.83909e-12 0)
(580 -1.8766e-12 0)
(580 -2.21858e-12 0)
(580 -2.60096e-12 0)
(580 -2.65835e-12 0)
(580 -2.39495e-12 0)
(580 -2.65199e-12 0)
(580 -3.22431e-12 0)
(580 -3.57719e-12 0)
(580 -2.77914e-12 0)
(580 -2.83736e-12 0)
(580 -3.50805e-12 0)
(580 -4.26979e-12 0)
(580 -4.55224e-12 0)
(580 -8.06704e-13 0)
(580 -6.63167e-13 0)
(580 -7.40248e-13 0)
(580 -9.99e-13 0)
(580 -1.03161e-12 0)
(580 -9.91049e-13 0)
(580 -9.27186e-13 0)
(580 -9.2838e-13 0)
(580 -7.07683e-13 0)
(580 -5.89666e-13 0)
(580 -3.95383e-13 0)
(580 -3.51319e-13 0)
(580 -3.54538e-13 0)
(580 -4.59079e-13 0)
(580 -6.17724e-13 0)
(580 -8.73232e-13 0)
(580 -1.17811e-12 0)
(580 -1.25113e-12 0)
(580 -1.10436e-12 0)
(580 -1.33242e-12 0)
(580 -1.56872e-12 0)
(580 -2.09986e-12 0)
(580 -2.12796e-12 0)
(580 -2.5453e-12 0)
(580 -2.56897e-12 0)
(580 -2.66366e-12 0)
(580 -3.35878e-12 0)
(580 -4.04994e-12 0)
(580 -4.76742e-12 0)
(580 -5.07129e-12 0)
(580 -5.21943e-12 0)
(580 -4.58129e-12 0)
(580 -4.37046e-12 0)
(580 -4.27509e-12 0)
(580 -4.27779e-12 0)
(580 -4.50049e-12 0)
(580 -4.5737e-12 0)
(580 -4.61064e-12 0)
(580 -4.67583e-12 0)
(580 -4.6397e-12 0)
(580 -4.46889e-12 0)
(580 -4.40144e-12 0)
(580 -4.25108e-12 0)
(580 -4.14717e-12 0)
(580 -3.78324e-12 0)
(580 -3.69214e-12 0)
(580 -3.60768e-12 0)
(580 -3.44358e-12 0)
(580 -3.07406e-12 0)
(580 -2.67811e-12 0)
(580 -2.64403e-12 0)
(580 -2.61845e-12 0)
(580 -2.56197e-12 0)
(580 -2.52411e-12 0)
(580 -2.15065e-12 0)
(580 -1.75958e-12 0)
(580 -1.89636e-12 0)
(580 -2.10566e-12 0)
(580 -2.54128e-12 0)
(580 -2.79252e-12 0)
(580 -3.13304e-12 0)
(580 -3.2028e-12 0)
(580 -3.17673e-12 0)
(580 -3.83326e-12 0)
(580 -4.93576e-12 0)
(580 -5.12746e-12 0)
(580 -5.12262e-12 0)
(580 -4.82284e-12 0)
(580 -4.9164e-12 0)
(580 -5.41751e-12 0)
(580 -1.79347e-12 0)
(580 -1.91444e-12 0)
(580 -1.90846e-12 0)
(580 -1.95231e-12 0)
(580 -2.15597e-12 0)
(580 -2.2323e-12 0)
(580 -2.26591e-12 0)
(580 -2.10333e-12 0)
(580 -2.12874e-12 0)
(580 -2.13497e-12 0)
(580 -2.13111e-12 0)
(580 -2.28379e-12 0)
(580 -2.37326e-12 0)
(580 -2.4295e-12 0)
(580 -2.51597e-12 0)
(580 -3.0081e-12 0)
(580 -3.15561e-12 0)
(580 -3.271e-12 0)
(580 -3.32572e-12 0)
(580 -3.28946e-12 0)
(580 -3.37308e-12 0)
(580 -3.28131e-12 0)
(580 -3.53086e-12 0)
(580 -3.91177e-12 0)
(580 -4.1648e-12 0)
(580 -4.28638e-12 0)
(580 -4.27613e-12 0)
(580 -3.97553e-12 0)
(580 -3.76063e-12 0)
(580 -3.62406e-12 0)
(580 -3.46056e-12 0)
(580 -3.42208e-12 0)
(580 -3.23989e-12 0)
(580 -3.01315e-12 0)
(580 -2.86873e-12 0)
(580 -2.8208e-12 0)
(580 -2.75959e-12 0)
(580 -2.68061e-12 0)
(580 -2.63391e-12 0)
(580 -2.59196e-12 0)
(580 -2.46765e-12 0)
(580 -2.3293e-12 0)
(580 -2.27998e-12 0)
(580 -2.18309e-12 0)
(580 -2.04347e-12 0)
(580 -1.79167e-12 0)
(580 -1.73921e-12 0)
(580 -1.68851e-12 0)
(580 -2.09064e-12 0)
(580 -2.45882e-12 0)
(580 -2.47445e-12 0)
(580 -2.20293e-12 0)
(580 -2.21311e-12 0)
(580 -1.87351e-12 0)
(580 -2.0591e-12 0)
(580 -1.94439e-12 0)
(580 -1.99877e-12 0)
(580 -1.95049e-12 0)
(580 -1.98106e-12 0)
(580 -2.19253e-12 0)
(580 -2.69957e-12 0)
(580 -3.14783e-12 0)
(580 -3.40027e-12 0)
(580 -3.93612e-12 0)
(580 -4.98071e-12 0)
(580 -5.62595e-12 0)
(580 -5.49221e-12 0)
(580 -5.27641e-12 0)
(580 -5.10594e-12 0)
(580 -5.12587e-12 0)
(580 -1.14429e-12 0)
(580 -9.89471e-13 0)
(580 -6.87534e-13 0)
(580 -4.13858e-13 0)
(580 -7.68366e-13 0)
(580 -1.06515e-12 0)
(580 -1.27804e-12 0)
(580 -2.0656e-12 0)
(580 -2.55332e-12 0)
(580 -3.03086e-12 0)
(580 -3.57829e-12 0)
(580 -3.93102e-12 0)
(580 -4.21481e-12 0)
(580 -4.39622e-12 0)
(580 -4.36971e-12 0)
(580 -4.15145e-12 0)
(580 -3.93158e-12 0)
(580 -3.77746e-12 0)
(580 -3.47825e-12 0)
(580 -3.45834e-12 0)
(580 -3.49237e-12 0)
(580 -3.39266e-12 0)
(580 -3.32468e-12 0)
(580 -3.04629e-12 0)
(580 -3.00398e-12 0)
(580 -2.84451e-12 0)
(580 -2.57471e-12 0)
(580 -2.1145e-12 0)
(580 -1.99923e-12 0)
(580 -1.74021e-12 0)
(580 -1.80223e-12 0)
(580 -1.81906e-12 0)
(580 -1.89999e-12 0)
(580 -2.00473e-12 0)
(580 -2.02628e-12 0)
(580 -2.12757e-12 0)
(580 -1.8214e-12 0)
(580 -1.609e-12 0)
(580 -1.47283e-12 0)
(580 -1.29468e-12 0)
(580 -1.16536e-12 0)
(580 -1.25015e-12 0)
(580 -1.03214e-12 0)
(580 -1.15072e-12 0)
(580 -1.34812e-12 0)
(580 -1.62404e-12 0)
(580 -1.67993e-12 0)
(580 -1.85498e-12 0)
(580 -1.85206e-12 0)
(580 -1.87089e-12 0)
(580 -2.11653e-12 0)
(580 -2.38666e-12 0)
(580 -2.4919e-12 0)
(580 -2.72034e-12 0)
(580 -2.95868e-12 0)
(580 -3.31153e-12 0)
(580 -3.69759e-12 0)
(580 -4.00821e-12 0)
(580 -4.18196e-12 0)
(580 -4.40773e-12 0)
(580 -4.76678e-12 0)
(580 -5.33856e-12 0)
(580 -5.7527e-12 0)
(580 -6.1693e-12 0)
(580 -6.16765e-12 0)
(580 -6.26599e-12 0)
(580 -7.02206e-12 0)
(580 -7.22986e-12 0)
(580 -7.45528e-12 0)
(580 -6.98898e-12 0)
(580 -2.56382e-12 0)
(580 -2.56283e-12 0)
(580 -2.68334e-12 0)
(580 -2.85427e-12 0)
(580 -3.0141e-12 0)
(580 -3.23061e-12 0)
(580 -3.31585e-12 0)
(580 -3.29337e-12 0)
(580 -3.29036e-12 0)
(580 -3.40542e-12 0)
(580 -3.4282e-12 0)
(580 -3.39122e-12 0)
(580 -3.35768e-12 0)
(580 -3.25637e-12 0)
(580 -3.16816e-12 0)
(580 -3.2071e-12 0)
(580 -3.16365e-12 0)
(580 -3.09317e-12 0)
(580 -3.01997e-12 0)
(580 -2.8348e-12 0)
(580 -2.46023e-12 0)
(580 -2.26844e-12 0)
(580 -2.14192e-12 0)
(580 -1.90115e-12 0)
(580 -1.91628e-12 0)
(580 -1.57266e-12 0)
(580 -1.3736e-12 0)
(580 -1.25684e-12 0)
(580 -1.03857e-12 0)
(580 -9.4047e-13 0)
(580 -1.04333e-12 0)
(580 -9.70158e-13 0)
(580 -1.12864e-12 0)
(580 -1.30351e-12 0)
(580 -1.51558e-12 0)
(580 -1.56556e-12 0)
(580 -1.61142e-12 0)
(580 -1.58232e-12 0)
(580 -1.34696e-12 0)
(580 -1.49628e-12 0)
(580 -2.08479e-12 0)
(580 -2.40633e-12 0)
(580 -2.55853e-12 0)
(580 -2.82144e-12 0)
(580 -2.89543e-12 0)
(580 -2.94938e-12 0)
(580 -2.94905e-12 0)
(580 -2.95289e-12 0)
(580 -2.90076e-12 0)
(580 -3.03959e-12 0)
(580 -3.23382e-12 0)
(580 -3.62088e-12 0)
(580 -3.79484e-12 0)
(580 -4.39914e-12 0)
(580 -4.92876e-12 0)
(580 -5.35085e-12 0)
(580 -5.81294e-12 0)
(580 -6.17971e-12 0)
(580 -6.53659e-12 0)
(580 -6.88142e-12 0)
(580 -7.24451e-12 0)
(580 -7.24925e-12 0)
(580 -7.23575e-12 0)
(580 -7.56136e-12 0)
(580 -7.50452e-12 0)
(580 -7.21255e-12 0)
(580 -6.78645e-12 0)
(580 -6.61745e-12 0)
(580 -6.05382e-12 0)
(580 -5.66114e-12 0)
(580 -2.35504e-12 0)
(580 -2.4595e-12 0)
(580 -2.77156e-12 0)
(580 -2.9332e-12 0)
(580 -3.06307e-12 0)
(580 -3.27606e-12 0)
(580 -3.25177e-12 0)
(580 -3.25105e-12 0)
(580 -3.26555e-12 0)
(580 -3.33849e-12 0)
(580 -3.27945e-12 0)
(580 -3.35004e-12 0)
(580 -3.34018e-12 0)
(580 -3.41579e-12 0)
(580 -3.46502e-12 0)
(580 -3.36688e-12 0)
(580 -3.39445e-12 0)
(580 -3.32878e-12 0)
(580 -3.20688e-12 0)
(580 -3.08149e-12 0)
(580 -3.0568e-12 0)
(580 -2.83818e-12 0)
(580 -2.55989e-12 0)
(580 -2.16361e-12 0)
(580 -1.83945e-12 0)
(580 -1.76705e-12 0)
(580 -1.86434e-12 0)
(580 -1.53902e-12 0)
(580 -1.27566e-12 0)
(580 -1.27467e-12 0)
(580 -1.16884e-12 0)
(580 -1.11287e-12 0)
(580 -1.09122e-12 0)
(580 -1.03554e-12 0)
(580 -8.81928e-13 0)
(580 -8.66212e-13 0)
(580 -8.80184e-13 0)
(580 -1.06595e-12 0)
(580 -1.32532e-12 0)
(580 -1.83768e-12 0)
(580 -2.36692e-12 0)
(580 -2.52815e-12 0)
(580 -3.01813e-12 0)
(580 -3.20681e-12 0)
(580 -3.17835e-12 0)
(580 -3.36537e-12 0)
(580 -3.53394e-12 0)
(580 -3.8301e-12 0)
(580 -4.19104e-12 0)
(580 -4.41174e-12 0)
(580 -4.73951e-12 0)
(580 -4.96236e-12 0)
(580 -5.00225e-12 0)
(580 -5.14734e-12 0)
(580 -5.32852e-12 0)
(580 -5.59934e-12 0)
(580 -5.78578e-12 0)
(580 -6.01483e-12 0)
(580 -6.27903e-12 0)
(580 -6.60311e-12 0)
(580 -6.8359e-12 0)
(580 -7.01985e-12 0)
(580 -7.07417e-12 0)
(580 -7.09029e-12 0)
(580 -6.95316e-12 0)
(580 -6.80122e-12 0)
(580 -6.42083e-12 0)
(580 -5.61021e-12 0)
(580 -5.3851e-12 0)
(580 -5.29532e-12 0)
(580 -1.41408e-12 0)
(580 -1.62363e-12 0)
(580 -1.62101e-12 0)
(580 -1.41264e-12 0)
(580 -1.20095e-12 0)
(580 -1.07576e-12 0)
(580 -1.02196e-12 0)
(580 -1.01414e-12 0)
(580 -1.16394e-12 0)
(580 -1.29773e-12 0)
(580 -1.64222e-12 0)
(580 -1.82272e-12 0)
(580 -2.04819e-12 0)
(580 -2.38679e-12 0)
(580 -2.53789e-12 0)
(580 -2.5937e-12 0)
(580 -2.49342e-12 0)
(580 -2.46856e-12 0)
(580 -2.14723e-12 0)
(580 -2.11036e-12 0)
(580 -1.93574e-12 0)
(580 -1.59655e-12 0)
(580 -8.54417e-13 0)
(580 -4.67321e-13 0)
(580 -2.84103e-13 0)
(580 -1.51559e-13 0)
(580 -2.65334e-13 0)
(580 -4.31577e-13 0)
(580 -6.05668e-13 0)
(580 -5.50696e-13 0)
(580 -4.92896e-13 0)
(580 -5.48254e-13 0)
(580 -5.64585e-13 0)
(580 -5.40327e-13 0)
(580 -4.91742e-13 0)
(580 -8.38148e-13 0)
(580 -1.35195e-12 0)
(580 -1.67309e-12 0)
(580 -2.33692e-12 0)
(580 -3.22298e-12 0)
(580 -3.21654e-12 0)
(580 -3.34708e-12 0)
(580 -3.35548e-12 0)
(580 -2.91687e-12 0)
(580 -2.81357e-12 0)
(580 -2.80458e-12 0)
(580 -3.12818e-12 0)
(580 -3.35737e-12 0)
(580 -3.87672e-12 0)
(580 -4.31461e-12 0)
(580 -4.42227e-12 0)
(580 -4.34984e-12 0)
(580 -4.26107e-12 0)
(580 -4.16953e-12 0)
(580 -4.23969e-12 0)
(580 -4.42072e-12 0)
(580 -4.6179e-12 0)
(580 -4.96577e-12 0)
(580 -5.31609e-12 0)
(580 -5.63254e-12 0)
(580 -5.58402e-12 0)
(580 -5.49945e-12 0)
(580 -5.40786e-12 0)
(580 -5.13593e-12 0)
(580 -4.89964e-12 0)
(580 -4.75213e-12 0)
(580 -4.79527e-12 0)
(580 -4.81116e-12 0)
(580 -5.12352e-12 0)
(580 -4.9129e-12 0)
(580 -1.2706e-12 0)
(580 -9.8332e-13 0)
(580 -9.10787e-13 0)
(580 -8.01393e-13 0)
(580 -7.48664e-13 0)
(580 -8.70328e-13 0)
(580 -7.5702e-13 0)
(580 -7.81491e-13 0)
(580 -7.47831e-13 0)
(580 -8.67588e-13 0)
(580 -7.51745e-13 0)
(580 -7.94918e-13 0)
(580 -7.18762e-13 0)
(580 -3.49274e-13 0)
(580 -1.90805e-14 0)
(580 1.65145e-13 0)
(580 3.77024e-13 0)
(580 6.88117e-13 0)
(580 9.3111e-13 0)
(580 1.11682e-12 0)
(580 1.00108e-12 0)