/*--------------------------------*- C++ -*----------------------------------*\
| =========                 |                                                 |
| \\      /  F ield         | OpenFOAM: The Open Source CFD Toolbox           |
|  \\    /   O peration     | Version:  2306                                  |
|   \\  /    A nd           | Website:  www.openfoam.com                      |
|    \\/     M anipulation  |                                                 |
\*---------------------------------------------------------------------------*/
FoamFile
{
    version     2.0;
    format      ascii;
    arch        "LSB;label=32;scalar=64";
    class       volScalarField;
    location    "8e-05";
    object      p;
}
// * * * * * * * * * * * * * * * * * * * * * * * * * * * * * * * * * * * * * //

dimensions      [1 -1 -2 0 0 0 0];

internalField   nonuniform List<scalar> 
9032
(
109658
109591
109537
109519
109527
109550
109579
109594
109593
109586
109571
109553
109554
109568
109578
109585
109590
109592
109588
109575
109551
109526
109509
109505
109513
109531
109558
109594
109632
109656
109662
109642
109611
109583
109557
109535
109522
109517
109514
109506
109492
109489
109506
109536
109568
109609
109660
109691
109706
109729
109784
109918
110190
110641
111235
111808
112154
112277
112307
112286
112254
112234
112221
112209
112192
112164
112123
112087
109631
109565
109543
109556
109578
109592
109604
109609
109607
109603
109601
109588
109576
109575
109580
109592
109609
109623
109623
109612
109596
109579
109567
109564
109569
109579
109597
109620
109640
109652
109644
109621
109592
109555
109515
109486
109467
109463
109472
109485
109494
109512
109543
109578
109612
109646
109667
109672
109682
109707
109786
109960
110280
110803
111455
112006
112278
112347
112336
112298
112259
112227
112211
112200
112187
112168
112140
112095
109569
109587
109588
109583
109587
109590
109597
109599
109594
109588
109583
109569
109549
109534
109533
109540
109558
109580
109594
109594
109585
109570
109556
109558
109573
109598
109625
109648
109666
109669
109651
109627
109598
109556
109508
109475
109457
109451
109461
109481
109507
109539
109571
109603
109634
109660
109673
109676
109686
109715
109807
110005
110384
110969
111616
112094
112293
112328
112311
112277
112240
112212
112197
112185
112170
112149
112117
112076
109657
109666
109632
109607
109587
109584
109597
109611
109624
109629
109625
109608
109578
109553
109543
109547
109560
109582
109610
109620
109610
109602
109592
109586
109592
109599
109603
109606
109613
109619
109620
109616
109592
109550
109497
109457
109433
109428
109448
109489
109533
109566
109591
109608
109620
109629
109634
109638
109648
109697
109820
110065
110513
111139
111748
112154
112304
112323
112313
112286
112252
112223
112209
112199
112183
112156
112117
112063
109671
109645
109598
109564
109551
109560
109577
109594
109616
109626
109623
109605
109576
109552
109537
109542
109552
109568
109592
109614
109621
109615
109604
109591
109585
109581
109580
109586
109594
109606
109625
109635
109612
109569
109523
109487
109469
109466
109485
109526
109560
109577
109583
109583
109581
109576
109578
109590
109617
109685
109836
110144
110666
111320
111871
112210
112317
112332
112326
112306
112278
112248
112224
112207
112187
112153
112104
112044
109692
109636
109583
109562
109559
109570
109584
109597
109607
109629
109655
109647
109616
109579
109554
109555
109553
109555
109570
109594
109612
109611
109602
109590
109578
109567
109569
109575
109584
109594
109614
109630
109618
109599
109573
109539
109519
109512
109520
109544
109553
109549
109541
109533
109530
109530
109543
109569
109612
109701
109894
110270
110843
111488
111964
112238
112325
112342
112343
112329
112302
112268
112234
112206
112174
112131
112082
112027
109629
109609
109590
109583
109583
109580
109562
109561
109580
109618
109662
109683
109680
109670
109639
109606
109590
109579
109579
109590
109604
109613
109612
109613
109610
109601
109585
109566
109551
109551
109564
109584
109606
109621
109624
109618
109606
109591
109574
109556
109538
109523
109512
109506
109505
109511
109530
109564
109622
109738
109975
110409
111019
111627
112027
112229
112317
112345
112350
112344
112321
112287
112246
112198
112164
112135
112096
112046
109639
109668
109624
109601
109585
109551
109516
109518
109559
109618
109669
109694
109701
109699
109670
109619
109602
109599
109608
109633
109650
109647
109639
109633
109629
109616
109597
109571
109539
109518
109512
109520
109547
109587
109625
109646
109651
109642
109623
109597
109566
109533
109507
109495
109497
109509
109534
109578
109651
109797
110084
110571
111199
111738
112059
112208
112286
112328
112335
112328
112306
112273
112233
112193
112162
112134
112100
112057
109662
109667
109628
109599
109585
109540
109505
109516
109554
109585
109617
109633
109644
109643
109609
109572
109575
109597
109633
109670
109688
109680
109669
109650
109627
109604
109584
109564
109541
109522
109513
109517
109535
109565
109599
109629
109651
109649
109634
109614
109592
109569
109550
109539
109537
109549
109574
109617
109699
109874
110215
110756
111375
111831
112067
112172
112235
112278
112290
112281
112260
112232
112198
112164
112142
112120
112095
112060
109720
109570
109577
109585
109545
109525
109525
109538
109558
109563
109574
109584
109601
109606
109580
109573
109585
109605
109640
109681
109695
109686
109669
109642
109605
109571
109549
109537
109529
109523
109518
109521
109542
109569
109600
109628
109651
109660
109646
109627
109605
109588
109580
109577
109582
109594
109618
109663
109760
109971
110366
110945
111530
111897
112069
112144
112189
112223
112239
112234
112216
112193
112169
112143
112124
112106
112084
112060
109754
109425
109552
109590
109533
109534
109557
109560
109543
109532
109547
109573
109606
109624
109591
109548
109546
109568
109612
109670
109704
109708
109697
109667
109615
109561
109527
109519
109526
109539
109554
109563
109576
109592
109603
109611
109617
109625
109618
109603
109593
109592
109598
109610
109631
109655
109688
109739
109843
110087
110536
111142
111676
111958
112077
112132
112162
112178
112190
112191
112179
112164
112148
112128
112107
112085
112060
112043
108490
109505
109752
109594
109551
109605
109608
109584
109545
109534
109577
109617
109651
109635
109550
109494
109497
109531
109590
109658
109703
109717
109708
109677
109621
109563
109525
109523
109543
109570
109590
109605
109609
109603
109589
109582
109582
109588
109590
109583
109585
109601
109621
109647
109677
109708
109749
109808
109941
110233
110742
111362
111816
112013
112088
112126
112144
112150
112154
112161
112157
112149
112140
112124
112102
112070
112039
112023
96668.2
110101
110027
109407
109620
109693
109640
109595
109564
109554
109599
109646
109682
109657
109555
109489
109489
109522
109588
109658
109702
109713
109697
109657
109602
109524
109457
109449
109482
109546
109592
109613
109622
109614
109592
109576
109561
109554
109558
109567
109579
109603
109634
109667
109701
109736
109781
109860
110040
110401
110976
111582
111931
112060
112107
112133
112149
112154
112155
112164
112170
112167
112160
112142
112113
112071
112028
112007
57149.1
100006
108320
109181
109786
109662
109559
109594
109580
109548
109600
109658
109660
109614
109516
109501
109536
109583
109638
109668
109674
109668
109643
109605
109558
109500
109434
109406
109434
109493
109563
109611
109628
109620
109600
109578
109553
109529
109504
109497
109506
109535
109581
109640
109697
109743
109797
109901
110130
110562
111200
111768
112019
112105
112137
112158
112174
112183
112194
112211
112212
112205
112188
112157
112117
112067
112004
111963
33506.4
57758.8
96404.3
109537
110203
109305
109481
109634
109539
109478
109566
109607
109561
109490
109454
109512
109586
109656
109697
109688
109648
109608
109567
109530
109501
109470
109424
109391
109421
109473
109532
109588
109621
109621
109604
109579
109551
109521
109489
109469
109471
109490
109526
109578
109644
109712
109797
109943
110233
110746
111421
111925
112096
112153
112174
112191
112209
112223
112240
112251
112244
112228
112201
112162
112113
112054
111981
111929
32006.1
33464
56205.1
98071.7
108287
109067
109733
109740
109431
109429
109597
109622
109495
109408
109416
109496
109613
109702
109714
109675
109607
109541
109490
109463
109457
109454
109434
109413
109445
109484
109535
109581
109599
109602
109585
109558
109531
109501
109471
109451
109447
109464
109493
109535
109594
109672
109785
109980
110353
110957
111652
112045
112155
112193
112212
112229
112243
112251
112263
112268
112258
112237
112203
112157
112102
112039
111955
111893
32000
32005.9
33298.8
55253.5
96012.4
109006
110341
109493
109215
109528
109766
109691
109457
109405
109428
109501
109634
109692
109664
109614
109559
109505
109460
109433
109445
109462
109465
109479
109522
109556
109588
109597
109598
109580
109550
109522
109497
109472
109449
109432
109430
109447
109476
109522
109585
109668
109799
110047
110504
111181
111867
112137
112202
112218
112220
112230
112244
112258
112272
112275
112261
112234
112192
112139
112081
112014
111930
111873
32000
32000
32004.6
33171.8
53297
96231.5
108751
109080
109189
109950
110016
109701
109496
109517
109519
109564
109631
109619
109591
109563
109526
109495
109469
109443
109455
109476
109509
109566
109637
109689
109701
109675
109630
109580
109532
109497
109471
109448
109434
109431
109437
109458
109493
109543
109607
109695
109846
110148
110685
111406
112012
112183
112214
112220
112214
112210
112222
112235
112244
112250
112238
112209
112166
112110
112054
111993
111922
111874
32000
32000
32000
32004.1
32911
52846.7
94455.9
107561
109749
110506
109888
109480
109535
109608
109596
109607
109612
109595
109570
109549
109524
109509
109499
109482
109474
109490
109541
109616
109695
109760
109770
109741
109690
109619
109540
109494
109467
109445
109438
109445
109460
109488
109533
109589
109647
109738
109914
110273
110881
111620
112100
112197
112208
112210
112205
112196
112200
112209
112212
112215
112206
112176
112133
112078
112021
111965
111908
111867
32000
32000
32000
32000
32002.7
32910
50626.1
91148.1
108359
110551
108830
108998
109636
109613
109597
109597
109598
109582
109563
109545
109532
109531
109530
109526
109503
109506
109553
109626
109708
109778
109794
109767
109720
109655
109580
109513
109482
109465
109468
109478
109490
109517
109565
109632
109699
109792
109998
110422
111092
111807
112151
112198
112203
112205
112202
112193
112189
112195
112195
112193
112185
112154
112111
112058
111999
111940
111884
111843
32000
32000
32000
32000
32000
32002.9
32611.2
48588.1
89973.1
108802
107721
109505
110145
109651
109561
109582
109587
109566
109557
109534
109523
109534
109538
109548
109532
109518
109553
109602
109662
109735
109765
109746
109709
109662
109615
109579
109559
109550
109541
109523
109514
109528
109571
109639
109726
109856
110120
110623
111321
111965
112181
112200
112204
112206
112208
112204
112199
112201
112198
112190
112179
112147
112104
112050
111989
111926
111863
111810
32000
32000
32000
32000
32000
32000
32001.5
32502.3
46016.9
86583.8
105598
111435
110401
109425
109393
109551
109620
109592
109556
109528
109511
109520
109528
109547
109554
109529
109547
109573
109587
109626
109648
109633
109621
109623
109621
109635
109642
109638
109614
109563
109526
109524
109549
109616
109727
109906
110248
110840
111550
112086
112200
112204
112204
112208
112218
112218
112212
112211
112206
112195
112179
112147
112101
112047
111986
111920
111852
111789
32000
32000
32000
32000
32000
32000
32000
32001.1
32333.3
43639.6
81847.1
108835
109240
108900
109422
109528
109601
109606
109594
109585
109549
109516
109512
109528
109553
109554
109541
109534
109515
109518
109531
109524
109533
109553
109595
109651
109685
109684
109653
109589
109520
109502
109520
109582
109713
109958
110383
111049
111751
112164
112212
112210
112204
112207
112222
112232
112227
112223
112217
112205
112185
112156
112111
112058
111998
111931
111854
111777
32000
32000
32000
32000
32000
32000
32000
32000
32000.6
32210.5
41548.2
79266.4
105783
109156
109466
109534
109678
109718
109732
109723
109672
109581
109522
109508
109529
109547
109526
109501
109458
109435
109454
109464
109482
109505
109564
109633
109690
109698
109663
109602
109521
109483
109501
109569
109716
110008
110518
111230
111903
112202
112226
112221
112210
112204
112212
112228
112231
112227
112223
112211
112190
112160
112119
112068
112008
111943
111867
111789
32000
32000
32000
32000
32000
32000
32000
32000
32000
32000.3
32145.2
39325.9
74410.9
104512
109675
109799
109891
109917
109900
109852
109762
109643
109580
109563
109568
109558
109508
109469
109432
109427
109453
109461
109475
109514
109573
109630
109686
109695
109660
109610
109540
109488
109507
109579
109746
110090
110666
111400
112003
112223
112242
112238
112225
112212
112207
112211
112217
112218
112217
112208
112187
112155
112115
112068
112008
111944
111872
111802
32000
32000
32000
32000
32000
32000
32000
32000
32000
32000
32000.2
32087.6
37402.7
68885.3
103143
109371
110227
109806
109619
109690
109713
109664
109638
109643
109653
109601
109503
109429
109394
109433
109516
109553
109571
109591
109616
109634
109678
109681
109648
109613
109569
109525
109546
109631
109823
110214
110845
111568
112074
112245
112266
112265
112254
112237
112218
112210
112211
112210
112205
112198
112179
112145
112104
112060
112005
111939
111870
111806
32000
32000
32000
32000
32000
32000
32000
32000
32000
32000
32000
32000.1
32046.9
35799.7
64241.1
99470.3
108157
108981
109177
109579
109676
109658
109663
109667
109709
109636
109510
109394
109368
109445
109569
109642
109677
109675
109655
109639
109639
109633
109614
109601
109584
109570
109602
109706
109934
110376
111049
111732
112142
112267
112294
112295
112285
112267
112242
112221
112214
112211
112199
112180
112158
112125
112082
112041
111996
111932
111862
111798
32000
32000
32000
32000
32000
32000
32000
32000
32000
32000
32000
32000
32000
32026.2
34427.9
58831.5
96939.9
108799
109383
109947
109753
109500
109522
109573
109663
109595
109470
109339
109333
109444
109605
109698
109730
109715
109669
109623
109584
109560
109557
109567
109584
109596
109644
109768
110043
110551
111251
111868
112196
112295
112320
112321
112310
112292
112265
112236
112220
112211
112195
112163
112135
112101
112055
112008
111961
111900
111832
111771
32000
32000
32000
32000
32000
32000
32000
32000
32000
32000
32000
32000
32000
32000
32012.3
33634.3
53138.2
91431
108679
110358
109662
109091
109312
109438
109607
109551
109464
109351
109337
109443
109594
109683
109714
109694
109641
109602
109573
109560
109548
109554
109572
109605
109674
109826
110151
110717
111418
111957
112215
112293
112313
112313
112303
112287
112266
112243
112227
112211
112184
112145
112113
112077
112032
111987
111940
111878
111810
111747
32000
32000
32000
32000
32000
32000
32000
32000
32000
32000
32000
32000
32000
32000
32000
32006.5
32793.1
48505.8
87693.5
107642
108238
109073
109255
109483
109579
109533
109466
109385
109405
109499
109625
109690
109684
109656
109626
109611
109605
109601
109582
109566
109578
109611
109685
109870
110263
110890
111560
112025
112225
112285
112294
112287
112271
112256
112243
112230
112219
112203
112177
112138
112102
112063
112017
111972
111925
111864
111795
111725
32000
32000
32000
32000
32000
32000
32000
32000
32000
32000
32000
32000
32000
32000
32000
32000
32002.1
32481.3
43630
81501.7
104398
110515
109994
109697
109680
109554
109455
109459
109542
109661
109730
109727
109672
109631
109638
109657
109676
109679
109649
109603
109596
109627
109714
109943
110413
111083
111704
112082
112237
112282
112294
112284
112256
112237
112226
112222
112215
112200
112175
112138
112102
112061
112014
111968
111917
111856
111782
111702
32000
32000
32000
32000
32000
32000
32000
32000
32000
32000
32000
32000
32000
32000
32000
32000
32000
32001
32212
40129.5
72920
104803
108948
109542
109789
109551
109374
109402
109540
109758
109817
109785
109689
109631
109647
109696
109732
109732
109689
109626
109617
109653
109769
110059
110611
111297
111838
112128
112249
112292
112306
112295
112264
112243
112230
112229
112221
112205
112180
112144
112108
112068
112020
111971
111915
111853
111774
111684
32000
32000
32000
32000
32000
32000
32000
32000
32000
32000
32000
32000
32000
32000
32000
32000
32000
32000
32000.3
32100.4
37060.3
66348.1
98787.5
109450
110375
109586
109184
109317
109510
109761
109803
109765
109652
109609
109634
109691
109726
109716
109665
109614
109620
109673
109838
110208
110830
111489
111932
112156
112262
112308
112328
112319
112284
112259
112246
112241
112227
112211
112189
112159
112130
112095
112053
112002
111940
111867
111778
111687
32000
32000
32000
32000
32000
32000
32000
32000
32000
32000
32000
32000
32000
32000
32000
32000
32000
32000
32000
32000.1
32043
34787
58336.9
95337.6
109353
108799
109106
109161
109360
109557
109573
109571
109556
109574
109616
109670
109662
109630
109588
109573
109612
109708
109928
110376
111032
111609
111964
112159
112264
112319
112352
112350
112316
112284
112267
112254
112233
112212
112190
112170
112147
112121
112089
112038
111966
111881
111782
111689
32000
32000
32000
32000
32000
32000
32000
32000
32000
32000
32000
32000
32000
32000
32000
32000
32000
32000
32000
32000
32000
32015.1
33509.1
50207.1
90069.4
107468
110182
109662
109524
109571
109508
109480
109518
109626
109712
109705
109649
109581
109560
109590
109661
109806
110082
110586
111213
111689
111971
112143
112253
112321
112363
112366
112330
112293
112272
112249
112225
112200
112173
112156
112145
112134
112109
112056
111977
111886
111783
111687
32000
32000
32000
32000
32000
32000
32000
32000
32000
32000
32000
32000
32000
32000
32000
32000
32000
32000
32000
32000
32000
32000
32005.6
32565.7
45240.4
81017.3
106294
110290
110101
109804
109710
109564
109575
109707
109804
109779
109682
109575
109578
109650
109793
109989
110304
110828
111390
111779
112005
112153
112263
112341
112376
112367
112323
112289
112270
112248
112223
112196
112164
112127
112102
112087
112075
112040
111966
111874
111768
111671
32000
32000
32000
32000
32000
32000
32000
32000
32000
32000
32000
32000
32000
32000
32000
32000
32000
32000
32000
32000
32000
32000
32000
32001.2
32272.9
40183.7
72805.7
101638
108646
109988
109785
109695
109648
109726
109759
109723
109624
109543
109582
109680
109865
110097
110462
111011
111537
111869
112052
112172
112278
112356
112384
112371
112331
112303
112285
112269
112246
112216
112177
112122
112059
112012
111973
111940
111887
111806
111709
111616
32000
32000
32000
32000
32000
32000
32000
32000
32000
32000
32000
32000
32000
32000
32000
32000
32000
32000
32000
32000
32000
32000
32000
32000
32000.4
32101.3
36424.1
63368.4
96590.4
109139
109727
109654
109525
109484
109488
109469
109460
109457
109504
109599
109796
110060
110479
111064
111611
111922
112074
112173
112258
112329
112360
112367
112348
112331
112320
112315
112304
112269
112221
112146
112047
111958
111894
111838
111785
111718
111631
111531
32000
32000
32000
32000
32000
32000
32000
32000
32000
32000
32000
32000
32000
32000
32000
32000
32000
32000
32000
32000
32000
32000
32000
32000
32000
32000.1
32032.6
34253.3
52416.7
92059.3
107307
109466
109337
109277
109365
109418
109488
109505
109510
109572
109747
110011
110478
111124
111677
111946
112077
112147
112206
112257
112301
112326
112341
112352
112352
112350
112348
112317
112268
112198
112083
111945
111853
111790
111731
111668
111586
111483
32000
32000
32000
32000
32000
32000
32000
32000
32000
32000
32000
32000
32000
32000
32000
32000
32000
32000
32000
32000
32000
32000
32000
32000
32000
32000
32000
32010.5
32737.4
46366
81452.2
106486
110062
109717
109702
109770
109909
109918
109863
109828
109879
110125
110643
111312
111822
112035
112122
112155
112192
112245
112289
112314
112327
112328
112324
112329
112345
112328
112279
112220
112125
111985
111859
111785
111722
111660
111579
111478
32000
32000
32000
32000
32000
32000
32000
32000
32000
32000
32000
32000
32000
32000
32000
32000
32000
32000
32000
32000
32000
32000
32000
32000
32000
32000
32000
32000
32001.8
32318.1
40232.7
72075.1
100762
109122
110105
110183
110233
110180
110103
110049
110087
110348
110911
111566
111998
112164
112220
112225
112231
112287
112336
112363
112374
112350
112310
112276
112267
112282
112260
112211
112134
112014
111895
111820
111752
111684
111604
111510
32000
32000
32000
32000
32000
32000
32000
32000
32000
32000
32000
32000
32000
32000
32000
32000
32000
32000
32000
32000
32000
32000
32000
32000
32000
32000
32000
32000
32000
32000.5
32102.2
36068.1
60711.8
95188.4
107959
109508
109748
109613
109696
109875
110084
110444
111027
111655
112035
112200
112257
112286
112333
112420
112478
112499
112484
112414
112325
112261
112216
112201
112193
112165
112114
112019
111918
111854
111795
111735
111657
111572
32000
32000
32000
32000
32000
32000
32000
32000
32000
32000
32000
32000
32000
32000
32000
32000
32000
32000
32000
32000
32000
32000
32000
32000
32000
32000
32000
32000
32000
32000
32000.1
32026.9
33754.9
49639
89214.8
106018
108575
108761
108993
109425
109902
110464
111118
111619
111852
112005
112142
112262
112394
112517
112587
112607
112581
112500
112384
112289
112227
112185
112149
112109
112058
111986
111920
111865
111812
111759
111687
111608
32000
32000
32000
32000
32000
32000
32000
32000
32000
32000
32000
32000
32000
32000
32000
32000
32000
32000
32000
32000
32000
32000
32000
32000
32000
32000
32000
32000
32000
32000
32000
32000
32007.2
32499.3
43812.2
75340.3
105299
109223
109515
109787
110304
110845
111398
111646
111733
111822
111968
112157
112354
112525
112616
112636
112612
112536
112433
112364
112304
112239
112175
112103
112006
111907
111850
111811
111785
111753
111693
111619
32000
32000
32000
32000
32000
32000
32000
32000
32000
32000
32000
32000
32000
32000
32000
32000
32000
32000
32000
32000
32000
32000
32000
32000
32000
32000
32000
32000
32000
32000
32000
32000
32000
32001
32206.4
37463.1
65815.4
95884.2
109633
110912
111081
111428
111714
111778
111798
111916
112064
112234
112398
112499
112521
112510
112487
112454
112434
112418
112385
112328
112254
112148
112000
111853
111775
111724
111691
111656
111602
111530
32000
32000
32000
32000
32000
32000
32000
32000
32000
32000
32000
32000
32000
32000
32000
32000
32000
32000
32000
32000
32000
32000
32000
32000
32000
32000
32000
32000
32000
32000
32000
32000
32000
32000
32000.3
32048.2
34463.2
52599.8
90092.9
105496
109715
111051
111682
111975
112155
112256
112348
112447
112516
112525
112476
112379
112297
112275
112285
112324
112379
112353
112280
112179
112027
111855
111762
111707
111664
111612
111547
111468
32000
32000
32000
32000
32000
32000
32000
32000
32000
32000
32000
32000
32000
32000
32000
32000
32000
32000
32000
32000
32000
32000
32000
32000
32000
32000
32000
32000
32000
32000
32000
32000
32000
32000
32000
32000
32011.6
32752.2
43921
77076.7
104785
112235
112553
112424
112475
112443
112471
112537
112582
112590
112555
112457
112340
112282
112247
112228
112250
112250
112188
112115
112002
111854
111770
111718
111676
111623
111544
111457
32000
32000
32000
32000
32000
32000
32000
32000
32000
32000
32000
32000
32000
32000
32000
32000
32000
32000
32000
32000
32000
32000
32000
32000
32000
32000
32000
32000
32000
32000
32000
32000
32000
32000
32000
32000
32000
32001.8
32199.7
38177.4
65634.8
99846.4
109341
111419
111864
111852
112143
112387
112556
112644
112690
112657
112567
112432
112323
112254
112216
112207
112160
112097
111994
111849
111757
111698
111659
111616
111533
111448
32000
32000
32000
32000
32000
32000
32000
32000
32000
32000
32000
32000
32000
32000
32000
32000
32000
32000
32000
32000
32000
32000
32000
32000
32000
32000
32000
32000
32000
32000
32000
32000
32000
32000
32000
32000
32000
32000
32000.3
32059.4
34440.2
54167.7
90973
111828
112304
112236
112214
112357
112542
112639
112717
112741
112685
112552
112398
112322
112271
112248
112206
112145
112038
111889
111780
111706
111645
111582
111494
111406
32000
32000
32000
32000
32000
32000
32000
32000
32000
32000
32000
32000
32000
32000
32000
32000
32000
32000
32000
32000
32000
32000
32000
32000
32000
32000
32000
32000
32000
32000
32000
32000
32000
32000
32000
32000
32000
32000
32000
32000
32011.8
32853.9
44811.7
83130.6
105835
113033
112908
112439
112452
112596
112596
112613
112584
112511
112421
112354
112310
112272
112224
112159
112065
111941
111838
111760
111670
111577
111474
111379
32000
32000
32000
32000
32000
32000
32000
32000
32000
32000
32000
32000
32000
32000
32000
32000
32000
32000
32000
32000
32000
32000
32000
32000
32000
32000
32000
32000
32000
32000
32000
32000
32000
32000
32000
32000
32000
32000
32000
32000
32000
32002.1
32238.5
39434.5
68235.8
104868
111802
112096
112638
112665
112520
112518
112530
112479
112414
112351
112296
112230
112155
112085
112023
111958
111892
111798
111686
111574
111460
111349
32000
32000
32000
32000
32000
32000
32000
32000
32000
32000
32000
32000
32000
32000
32000
32000
32000
32000
32000
32000
32000
32000
32000
32000
32000
32000
32000
32000
32000
32000
32000
32000
32000
32000
32000
32000
32000
32000
32000
32000
32000
32000
32000.3
32078.3
35113.6
57923.9
95034
111734
114076
113597
112891
112653
112667
112603
112520
112428
112336
112235
112128
112021
111929
111868
111834
111766
111669
111570
111466
111343
32000
32000
32000
32000
32000
32000
32000
32000
32000
32000
32000
32000
32000
32000
32000
32000
32000
32000
32000
32000
32000
32000
32000
32000
32000
32000
32000
32000
32000
32000
32000
32000
32000
32000
32000
32000
32000
32000
32000
32000
32000
32000
32000
32000.1
32018
33153.4
48241.1
85159.4
110008
111752
112028
112290
112650
112738
112689
112614
112540
112431
112289
112103
111916
111797
111713
111668
111613
111535
111447
111325
32000
32000
32000
32000
32000
32000
32000
32000
32000
32000
32000
32000
32000
32000
32000
32000
32000
32000
32000
32000
32000
32000
32000
32000
32000
32000
32000
32000
32000
32000
32000
32000
32000
32000
32000
32000
32000
32000
32000
32000
32000
32000
32000
32000
32000
32003.5
32391.7
40498.8
73217.7
103779
112356
113419
113187
112990
112722
112621
112576
112531
112440
112284
112029
111781
111661
111599
111560
111487
111405
111295
32000
32000
32000
32000
32000
32000
32000
32000
32000
32000
32000
32000
32000
32000
32000
32000
32000
32000
32000
32000
32000
32000
32000
32000
32000
32000
32000
32000
32000
32000
32000
32000
32000
32000
32000
32000
32000
32000
32000
32000
32000
32000
32000
32000
32000
32000
32000.6
32101.4
35965.5
60111.8
96352.1
112514
112724
112526
112123
111926
111983
112245
112368
112290
112092
111823
111673
111591
111541
111469
111387
111281
32000
32000
32000
32000
32000
32000
32000
32000
32000
32000
32000
32000
32000
32000
32000
32000
32000
32000
32000
32000
32000
32000
32000
32000
32000
32000
32000
32000
32000
32000
32000
32000
32000
32000
32000
32000
32000
32000
32000
32000
32000
32000
32000
32000
32000
32000
32000
32000.1
32026.6
33488.6
48395.7
87759
109566
112384
111961
111667
111757
112049
112228
112129
111979
111810
111684
111604
111536
111460
111378
111286
32000
32000
32000
32000
32000
32000
32000
32000
32000
32000
32000
32000
32000
32000
32000
32000
32000
32000
32000
32000
32000
32000
32000
32000
32000
32000
32000
32000
32000
32000
32000
32000
32000
32000
32000
32000
32000
32000
32000
32000
32000
32000
32000
32000
32000
32000
32000
32000
32000
32005.1
32401.8
41691.8
73274.2
104490
113044
112948
112879
112685
112225
112006
111895
111810
111695
111587
111498
111417
111352
111271
32000
32000
32000
32000
32000
32000
32000
32000
32000
32000
32000
32000
32000
32000
32000
32000
32000
32000
32000
32000
32000
32000
32000
32000
32000
32000
32000
32000
32000
32000
32000
32000
32000
32000
32000
32000
32000
32000
32000
32000
32000
32000
32000
32000
32000
32000
32000
32000
32000
32000
32000.7
32131.7
36190.5
59865.9
95658
109891
113315
113047
112129
112001
111971
111920
111771
111567
111445
111352
111294
111226
32000
32000
32000
32000
32000
32000
32000
32000
32000
32000
32000
32000
32000
32000
32000
32000
32000
32000
32000
32000
32000
32000
32000
32000
32000
32000
32000
32000
32000
32000
32000
32000
32000
32000
32000
32000
32000
32000
32000
32000
32000
32000
32000
32000
32000
32000
32000
32000
32000
32000
32000
32000.1
32027.9
33372.1
48325.5
83202.2
109419
110949
111106
111585
112126
112047
111837
111566
111422
111327
111267
111179
32000
32000
32000
32000
32000
32000
32000
32000
32000
32000
32000
32000
32000
32000
32000
32000
32000
32000
32000
32000
32000
32000
32000
32000
32000
32000
32000
32000
32000
32000
32000
32000
32000
32000
32000
32000
32000
32000
32000
32000
32000
32000
32000
32000
32000
32000
32000
32000
32000
32000
32000
32000
32000
32004.5
32393.7
39523.6
69511.1
99628
111553
112975
112926
112283
111794
111480
111405
111360
111318
111204
32000
32000
32000
32000
32000
32000
32000
32000
32000
32000
32000
32000
32000
32000
32000
32000
32000
32000
32000
32000
32000
32000
32000
32000
32000
32000
32000
32000
32000
32000
32000
32000
32000
32000
32000
32000
32000
32000
32000
32000
32000
32000
32000
32000
32000
32000
32000
32000
32000
32000
32000
32000
32000
32000
32000.6
32080.3
34978.8
53875.1
91421.2
108869
111390
111449
111408
111372
111384
111412
111385
111259
32000
32000
32000
32000
32000
32000
32000
32000
32000
32000
32000
32000
32000
32000
32000
32000
32000
32000
32000
32000
32000
32000
32000
32000
32000
32000
32000
32000
32000
32000
32000
32000
32000
32000
32000
32000
32000
32000
32000
32000
32000
32000
32000
32000
32000
32000
32000
32000
32000
32000
32000
32000
32000
32000
32000
32000.1
32016.5
32805.5
43581.6
76335.5
103296
112366
112490
112119
111741
111452
111280
111166
32000
32000
32000
32000
32000
32000
32000
32000
32000
32000
32000
32000
32000
32000
32000
32000
32000
32000
32000
32000
32000
32000
32000
32000
32000
32000
32000
32000
32000
32000
32000
32000
32000
32000
32000
32000
32000
32000
32000
32000
32000
32000
32000
32000
32000
32000
32000
32000
32000
32000
32000
32000
32000
32000
32000
32000
32000
32002
32179.7
37088.2
58967.3
96855.9
108382
110797
111097
110778
110800
110973
32000
32000
32000
32000
32000
32000
32000
32000
32000
32000
32000
32000
32000
32000
32000
32000
32000
32000
32000
32000
32000
32000
32000
32000
32000
32000
32000
32000
32000
32000
32000
32000
32000
32000
32000
32000
32000
32000