/*--------------------------------*- C++ -*----------------------------------*\
| =========                 |                                                 |
| \\      /  F ield         | OpenFOAM: The Open Source CFD Toolbox           |
|  \\    /   O peration     | Version:  2306                                  |
|   \\  /    A nd           | Website:  www.openfoam.com                      |
|    \\/     M anipulation  |                                                 |
\*---------------------------------------------------------------------------*/
FoamFile
{
    version     2.0;
    format      ascii;
    arch        "LSB;label=32;scalar=64";
    class       volScalarField;
    location    "8e-05";
    object      rho;
}
// * * * * * * * * * * * * * * * * * * * * * * * * * * * * * * * * * * * * * //

dimensions      [1 -3 0 0 0 0 0];

internalField   nonuniform List<scalar> 
9032
(
1.4202
1.41926
1.41842
1.41794
1.41776
1.41777
1.41781
1.41771
1.41747
1.41719
1.41688
1.41656
1.41648
1.41649
1.41643
1.41631
1.41618
1.41603
1.41588
1.41567
1.41537
1.41504
1.41478
1.41466
1.41466
1.41475
1.41493
1.41519
1.41545
1.41559
1.41558
1.41532
1.41497
1.41467
1.4144
1.41417
1.41402
1.41396
1.41392
1.41383
1.41367
1.41362
1.41371
1.41391
1.41414
1.41446
1.41491
1.41517
1.4153
1.4155
1.416
1.41725
1.41976
1.42391
1.42938
1.43466
1.43787
1.439
1.43921
1.43896
1.4386
1.43839
1.43826
1.43816
1.43799
1.43772
1.43734
1.43701
1.4181
1.41724
1.41682
1.41674
1.41679
1.41678
1.41673
1.41663
1.41645
1.41628
1.41615
1.41595
1.41576
1.41568
1.41562
1.41561
1.41566
1.41568
1.41562
1.41546
1.41525
1.41502
1.41483
1.41475
1.41475
1.4148
1.41492
1.41507
1.41519
1.41523
1.41512
1.41485
1.41454
1.41418
1.4138
1.4135
1.41332
1.41327
1.41335
1.41345
1.4135
1.41364
1.41387
1.41412
1.41437
1.41465
1.41484
1.41488
1.41497
1.41519
1.41592
1.41753
1.42049
1.42531
1.4313
1.43637
1.43885
1.43947
1.43934
1.43895
1.43856
1.43824
1.43809
1.43799
1.43788
1.43771
1.43745
1.43702
1.41316
1.4134
1.41343
1.41343
1.41352
1.41358
1.41366
1.41369
1.41367
1.41366
1.41366
1.41357
1.41341
1.41326
1.41324
1.41331
1.4135
1.41375
1.41392
1.41392
1.41384
1.41368
1.41355
1.41357
1.41374
1.41401
1.41427
1.41448
1.41463
1.41464
1.41445
1.41422
1.41396
1.41358
1.41316
1.41286
1.41271
1.41267
1.41276
1.41295
1.41319
1.41346
1.41373
1.41399
1.41424
1.41448
1.4146
1.41463
1.41473
1.415
1.41586
1.4177
1.42121
1.42659
1.43252
1.4369
1.43866
1.43899
1.43884
1.43854
1.43819
1.43793
1.43779
1.43769
1.43757
1.43739
1.43712
1.43672
1.41005
1.41042
1.41035
1.41039
1.41046
1.41062
1.41088
1.41118
1.41148
1.41172
1.41185
1.41184
1.41169
1.41153
1.41151
1.41162
1.41188
1.41223
1.41262
1.41278
1.41275
1.41272
1.41267
1.4127
1.41285
1.41304
1.41315
1.41322
1.41332
1.41342
1.41345
1.41343
1.41323
1.41288
1.41242
1.41209
1.41193
1.41192
1.41214
1.41257
1.41299
1.41331
1.41355
1.41372
1.41383
1.4139
1.41394
1.41399
1.4141
1.41457
1.41573
1.41799
1.42212
1.42787
1.43345
1.43716
1.43852
1.43875
1.43866
1.43843
1.43812
1.43786
1.43774
1.43767
1.43755
1.43734
1.437
1.43649
1.40884
1.40893
1.40883
1.40887
1.40905
1.40936
1.40971
1.41007
1.4105
1.41083
1.41102
1.41102
1.41092
1.41081
1.41075
1.4109
1.41114
1.41146
1.41185
1.41218
1.41233
1.41234
1.41231
1.41229
1.41236
1.41246
1.41253
1.41265
1.4128
1.41298
1.41321
1.41331
1.41314
1.41276
1.41237
1.41209
1.41201
1.41204
1.41228
1.41272
1.41306
1.41322
1.41328
1.4133
1.41329
1.41326
1.41331
1.41344
1.41371
1.41436
1.41575
1.41857
1.42338
1.42938
1.43448
1.4376
1.4386
1.43878
1.43874
1.43857
1.43831
1.43804
1.43783
1.4377
1.43754
1.43726
1.43685
1.43635
1.41032
1.41001
1.40971
1.40976
1.40996
1.41023
1.41049
1.41073
1.41097
1.41135
1.41177
1.41184
1.41171
1.41146
1.41126
1.4113
1.41136
1.41151
1.41181
1.41219
1.41246
1.41251
1.41247
1.41242
1.4124
1.4124
1.41249
1.41264
1.4128
1.41297
1.41319
1.41335
1.41326
1.41311
1.4129
1.41264
1.41253
1.41254
1.41268
1.41296
1.41306
1.41303
1.41295
1.41289
1.41288
1.41292
1.41307
1.41333
1.41376
1.4146
1.41639
1.41988
1.42517
1.43114
1.43555
1.43805
1.43884
1.43901
1.43903
1.43891
1.43867
1.43836
1.43806
1.43782
1.43755
1.4372
1.43677
1.4364
1.41338
1.41309
1.41286
1.41282
1.41288
1.41286
1.41266
1.41262
1.41275
1.41314
1.41364
1.41393
1.41398
1.4139
1.41353
1.4131
1.4129
1.41284
1.41295
1.41321
1.41346
1.41358
1.41355
1.4135
1.41345
1.41338
1.41328
1.4132
1.41317
1.41322
1.41336
1.41354
1.41373
1.41386
1.41392
1.41391
1.41386
1.41377
1.41366
1.41351
1.41336
1.41323
1.41314
1.41309
1.41311
1.41319
1.41339
1.41372
1.41428
1.41536
1.41759
1.42164
1.42729
1.43292
1.43661
1.43842
1.4392
1.43948
1.43953
1.43948
1.43928
1.43897
1.43858
1.43816
1.43787
1.43764
1.43729
1.43705
1.41738
1.41737
1.4169
1.41663
1.41641
1.41594
1.4154
1.41525
1.41546
1.41593
1.41645
1.41672
1.41677
1.41667
1.41621
1.41549
1.41517
1.41512
1.41528
1.41565
1.4159
1.41586
1.4157
1.41546
1.41523
1.41505
1.41487
1.41469
1.41447
1.4143
1.41423
1.41427
1.41446
1.4148
1.41515
1.41538
1.41546
1.41539
1.41522
1.41494
1.41462
1.41429
1.41405
1.41395
1.41398
1.41412
1.41438
1.4148
1.41549
1.41685
1.41952
1.42403
1.42982
1.43476
1.4377
1.439
1.43971
1.44013
1.44021
1.44015
1.43995
1.43963
1.43924
1.43886
1.43858
1.43836
1.43806
1.43795
1.41969
1.41957
1.41925
1.41901
1.41877
1.41812
1.41752
1.41744
1.41763
1.41788
1.41819
1.41833
1.41838
1.41825
1.41774
1.41718
1.4171
1.41726
1.41767
1.41813
1.41832
1.41822
1.418
1.4176
1.41714
1.4168
1.41657
1.41637
1.41618
1.41598
1.41587
1.41587
1.41598
1.41623
1.41654
1.41683
1.41702
1.41699
1.4168
1.41654
1.41625
1.41598
1.4158
1.4157
1.41569
1.41582
1.41607
1.41649
1.41726
1.41889
1.42203
1.42698
1.43262
1.43674
1.43885
1.43972
1.44028
1.44073
1.44087
1.4408
1.4406
1.4403
1.43994
1.43959
1.43938
1.4392
1.43898
1.43897
1.4207
1.41941
1.41959
1.41963
1.41916
1.41872
1.41852
1.41852
1.41864
1.4187
1.4188
1.41886
1.41896
1.41891
1.41854
1.41838
1.41846
1.41866
1.41907
1.41953
1.41967
1.41955
1.4193
1.41889
1.41835
1.41788
1.41759
1.41742
1.41731
1.41724
1.41718
1.41719
1.41738
1.41764
1.41795
1.4182
1.41836
1.41839
1.41821
1.41794
1.41766
1.41744
1.41733
1.4173
1.41735
1.41746
1.4177
1.41813
1.41905
1.421
1.42461
1.42987
1.43518
1.43846
1.43995
1.44054
1.44093
1.44132
1.44151
1.44147
1.44129
1.44101
1.4407
1.4404
1.44021
1.44005
1.43987
1.43992
1.42092
1.41821
1.41945
1.41961
1.41898
1.4188
1.41891
1.41888
1.41871
1.41863
1.41876
1.41897
1.41923
1.41933
1.41899
1.41858
1.41857
1.4188
1.41927
1.41985
1.42017
1.42018
1.42005
1.41969
1.41909
1.41842
1.41798
1.41782
1.41784
1.41796
1.41813
1.41825
1.41842
1.41862
1.41876
1.41881
1.4188
1.41879
1.41869
1.41849
1.41833
1.41827
1.41829
1.41838
1.41857
1.4188
1.41912
1.41961
1.42057
1.42284
1.42696
1.43248
1.43732
1.43983
1.44082
1.44126
1.44154
1.44179
1.44197
1.44197
1.44182
1.44157
1.4413
1.44104
1.44081
1.44061
1.44041
1.44047
1.40871
1.41924
1.42096
1.41927
1.41868
1.41916
1.41917
1.419
1.41867
1.41855
1.41891
1.41922
1.41949
1.41933
1.41856
1.4181
1.41815
1.4185
1.41909
1.41974
1.42018
1.42032
1.42023
1.41991
1.41931
1.41863
1.41813
1.41802
1.41813
1.41838
1.41863
1.41884
1.41897
1.41898
1.41889
1.41881
1.41876
1.41875
1.41873
1.41862
1.41859
1.41868
1.41883
1.41905
1.41932
1.41962
1.42003
1.4206
1.42185
1.4246
1.42932
1.43501
1.43911
1.44078
1.44135
1.44168
1.44192
1.44207
1.44219
1.44225
1.44212
1.44192
1.44169
1.44147
1.44122
1.44093
1.44068
1.44069
1.30091
1.42478
1.42324
1.41668
1.41854
1.41945
1.41914
1.41895
1.41865
1.41848
1.41874
1.419
1.41928
1.4191
1.4183
1.41783
1.41789
1.41825
1.41888
1.41955
1.42001
1.42015
1.42004
1.41968
1.41909
1.4182
1.41742
1.41725
1.41746
1.41806
1.4186
1.41891
1.41911
1.41911
1.41895
1.41877
1.41861
1.41851
1.41853
1.41859
1.41866
1.41882
1.41904
1.41931
1.41961
1.41996
1.42042
1.42121
1.42294
1.42633
1.43166
1.43722
1.44041
1.44142
1.4417
1.44193
1.44217
1.44233
1.44244
1.44252
1.44247
1.44228
1.44208
1.44183
1.44152
1.44117
1.44085
1.44077
0.909147
1.33066
1.40825
1.41373
1.41939
1.4186
1.41824
1.41879
1.41862
1.41807
1.41823
1.41851
1.41854
1.41825
1.41764
1.41768
1.41809
1.41853
1.41897
1.41928
1.41942
1.41949
1.41938
1.41905
1.4185
1.41774
1.41691
1.41655
1.41675
1.41736
1.41815
1.41876
1.41904
1.41904
1.4189
1.41869
1.41844
1.41823
1.418
1.41791
1.41797
1.41817
1.41852
1.419
1.41952
1.41998
1.42053
1.42157
1.42375
1.4278
1.43368
1.43892
1.44118
1.44181
1.44199
1.44221
1.44245
1.44267
1.44285
1.443
1.44289
1.44266
1.44238
1.44201
1.44159
1.44117
1.44069
1.44038
0.639473
0.915643
1.30021
1.4164
1.42332
1.41537
1.41742
1.41913
1.41812
1.41709
1.41744
1.41761
1.41722
1.41682
1.41684
1.41755
1.41832
1.41885
1.41915
1.4191
1.41887
1.41871
1.41851
1.41817
1.41773
1.41715
1.41649
1.4161
1.41637
1.41695
1.41768
1.41836
1.41878
1.41881
1.41868
1.41846
1.41822
1.41799
1.41772
1.4175
1.41749
1.4176
1.41783
1.41825
1.41885
1.41952
1.42037
1.42181
1.42457
1.42934
1.43556
1.44024
1.44168
1.44204
1.44221
1.44245
1.44273
1.44299
1.44321
1.44327
1.44309
1.44279
1.44243
1.44197
1.44148
1.44098
1.44039
1.43994
0.620152
0.638932
0.899417
1.3138
1.40458
1.41313
1.42019
1.42014
1.41687
1.4164
1.41743
1.41754
1.41644
1.41606
1.41635
1.4173
1.41833
1.419
1.41908
1.41876
1.41833
1.418
1.41769
1.41734
1.41707
1.4167
1.4163
1.41606
1.4164
1.41692
1.41759
1.41815
1.41833
1.41834
1.41818
1.41795
1.41777
1.4176
1.41739
1.41715
1.41708
1.41716
1.41729
1.41759
1.41814
1.41892
1.42005
1.42194
1.42546
1.43106
1.43748
1.44113
1.44194
1.44217
1.44239
1.44263
1.44288
1.44309
1.44324
1.44325
1.44304
1.44273
1.4423
1.44179
1.44127
1.44072
1.44003
1.43947
0.62007
0.620151
0.63683
0.88898
1.29263
1.41283
1.42572
1.41787
1.41445
1.41707
1.41894
1.41823
1.41625
1.41614
1.41652
1.41727
1.41834
1.41876
1.41849
1.4181
1.4179
1.41771
1.41734
1.41694
1.41673
1.41651
1.41637
1.41648
1.41698
1.41752
1.41802
1.41818
1.41812
1.41789
1.41757
1.41733
1.41722
1.41715
1.41703
1.41684
1.41679
1.41683
1.41694
1.41727
1.41786
1.4187
1.42001
1.42237
1.42665
1.4329
1.43926
1.44169
1.44212
1.44225
1.4423
1.44248
1.44273
1.44296
1.44312
1.44308
1.44287
1.44252
1.44205
1.44149
1.44095
1.44036
1.43966
1.43915
0.62007
0.62007
0.620133
0.635253
0.867293
1.29596
1.41034
1.4134
1.41408
1.4208
1.42136
1.41853
1.41696
1.41733
1.41742
1.41774
1.41818
1.41798
1.4177
1.41766
1.41771
1.41769
1.4174
1.41694
1.41663
1.41646
1.41661
1.41717
1.41803
1.41878
1.41905
1.41882
1.41828
1.4177
1.41717
1.41688
1.41682
1.41682
1.41678
1.41673
1.41673
1.41677
1.41692
1.41731
1.41794
1.41884
1.42033
1.42319
1.42817
1.43481
1.44039
1.44186
1.4421
1.44217
1.44215
1.44219
1.44237
1.44255
1.44265
1.44265
1.44249
1.44216
1.44169
1.44112
1.4406
1.44006
1.43946
1.43902
0.62007
0.62007
0.62007
0.620127
0.6319
0.862096
1.278
1.39882
1.4189
1.4261
1.42042
1.41687
1.4175
1.41828
1.41804
1.41799
1.41786
1.4176
1.41745
1.41761
1.41781
1.41782
1.41765
1.4172
1.41666
1.41649
1.41682
1.41761
1.41865
1.41953
1.41971
1.4194
1.41875
1.41791
1.41708
1.41674
1.4167
1.41673
1.41672
1.41677
1.41682
1.41691
1.41718
1.41766
1.41826
1.41918
1.4209
1.42427
1.4299
1.43668
1.44101
1.44189
1.442
1.44204
1.44202
1.44197
1.44203
1.44216
1.4422
1.44219
1.44209
1.44177
1.44132
1.44077
1.44023
1.43974
1.43925
1.4389
0.62007
0.62007
0.62007
0.62007
0.620107
0.631904
0.83775
1.2485
1.40722
1.42688
1.41093
1.41257
1.41846
1.41819
1.4179
1.41771
1.41755
1.41736
1.41737
1.4176
1.41791
1.41798
1.41788
1.41751
1.41685
1.41659
1.4169
1.41774
1.41884
1.41976
1.41994
1.41964
1.41901
1.41817
1.41734
1.41685
1.41683
1.41687
1.41693
1.41701
1.41703
1.41713
1.41748
1.41811
1.41877
1.41969
1.42166
1.42563
1.43182
1.43835
1.4414
1.44189
1.44195
1.44197
1.44197
1.4419
1.44188
1.44195
1.44196
1.44193
1.44185
1.44153
1.44111
1.44059
1.44002
1.43948
1.439
1.43866
0.62007
0.62007
0.62007
0.62007
0.62007
0.620109
0.628034
0.814795
1.23749
1.41089
1.4009
1.41746
1.42321
1.41859
1.41736
1.41737
1.41733
1.41717
1.41731
1.4175
1.41779
1.41795
1.41789
1.41765
1.41709
1.41671
1.41692
1.41758
1.41849
1.4194
1.41971
1.41945
1.4189
1.41823
1.41769
1.41747
1.41753
1.41761
1.41758
1.41741
1.41725
1.41727
1.41759
1.41824
1.41909
1.42034
1.42284
1.42751
1.43395
1.43975
1.44171
1.44195
1.44199
1.44202
1.44204
1.442
1.44196
1.44199
1.44198
1.44191
1.44181
1.44151
1.44109
1.44057
1.43999
1.43941
1.43884
1.43839
0.62007
0.62007
0.62007
0.62007
0.62007
0.62007
0.62009
0.626635
0.786182
1.20504
1.38286
1.43555
1.42588
1.41659
1.41595
1.41709
1.41765
1.41745
1.41736
1.41746
1.41767
1.41781
1.41779
1.41767
1.41736
1.41687
1.41697
1.41741
1.4179
1.41847
1.41869
1.41845
1.41813
1.41792
1.41786
1.41809
1.41835
1.41845
1.41831
1.41783
1.41738
1.41728
1.41747
1.41811
1.4192
1.42092
1.42412
1.42959
1.43612
1.44085
1.44198
1.44206
1.44207
1.44211
1.44219
1.44218
1.44211
1.44212
1.4421
1.44202
1.44188
1.44158
1.44115
1.44063
1.44005
1.43944
1.43882
1.43829
0.62007
0.62007
0.62007
0.62007
0.62007
0.62007
0.62007
0.620085
0.624448
0.75946
1.16169
1.41224
1.41527
1.41204
1.41663
1.41718
1.4178
1.41788
1.41793
1.41811
1.41807
1.41785
1.41774
1.41766
1.41751
1.41721
1.41709
1.4172
1.41737
1.41763
1.41777
1.41761
1.41749
1.41747
1.41777
1.41841
1.41889
1.41897
1.41877
1.41816
1.4174
1.41718
1.41734
1.41793
1.41921
1.42153
1.42549
1.43162
1.43805
1.44162
1.44221
1.44221
1.44219
1.44221
1.44233
1.4424
1.44235
1.44232
1.4423
1.44221
1.44204
1.44175
1.44133
1.44081
1.44025
1.43963
1.43895
1.4383
0.62007
0.62007
0.62007
0.62007
0.62007
0.62007
0.62007
0.62007
0.620078
0.622841
0.735526
1.13486
1.38409
1.41486
1.4173
1.41779
1.41903
1.41937
1.4196
1.41964
1.4194
1.41868
1.41804
1.41771
1.41751
1.41737
1.41717
1.41708
1.41701
1.41708
1.41729
1.41732
1.41733
1.41734
1.41775
1.41846
1.41914
1.41925
1.41898
1.41838
1.41753
1.41714
1.41732
1.41797
1.41937
1.42212
1.42684
1.43342
1.43954
1.4421
1.44242
1.44241
1.44236
1.44231
1.44237
1.44249
1.44252
1.4425
1.44247
1.44236
1.44216
1.44187
1.44148
1.44099
1.44043
1.43984
1.43918
1.43851
0.62007
0.62007
0.62007
0.62007
0.62007
0.62007
0.62007
0.62007
0.62007
0.620075
0.621987
0.709467
1.08721
1.37357
1.41977
1.42077
1.42147
1.42155
1.4214
1.42103
1.42042
1.41951
1.41881
1.41847
1.41813
1.41778
1.41724
1.41696
1.41693
1.41714
1.41745
1.41748
1.4175
1.41768
1.41811
1.41868
1.41927
1.41937
1.41905
1.41855
1.41782
1.4173
1.41749
1.41817
1.41975
1.42298
1.42831
1.43508
1.44055
1.4424
1.44264
1.44263
1.44257
1.4425
1.44246
1.44249
1.44254
1.44254
1.44251
1.44241
1.4422
1.44188
1.4415
1.44106
1.4405
1.43993
1.43931
1.4387
0.62007
0.62007
0.62007
0.62007
0.62007
0.62007
0.62007
0.62007
0.62007
0.62007
0.620073
0.621232
0.686853
1.03218
1.36029
1.4183
1.42461
1.42058
1.41879
1.41957
1.42004
1.41979
1.4195
1.41941
1.41916
1.41847
1.41736
1.41672
1.41667
1.41718
1.4181
1.41843
1.41851
1.41857
1.41872
1.41887
1.4193
1.41933
1.419
1.41862
1.41815
1.41771
1.4179
1.41871
1.42053
1.42418
1.43002
1.4367
1.44126
1.44268
1.44292
1.44293
1.44289
1.4428
1.44268
1.44262
1.44262
1.44258
1.44247
1.44236
1.44215
1.44182
1.44143
1.44101
1.44051
1.43993
1.43932
1.43876
0.62007
0.62007
0.62007
0.62007
0.62007
0.62007
0.62007
0.62007
0.62007
0.62007
0.62007
0.620071
0.620694
0.667599
0.98405
1.32809
1.40507
1.41273
1.4146
1.41841
1.41962
1.41962
1.41968
1.41962
1.41978
1.41892
1.4175
1.41642
1.41633
1.41718
1.4185
1.41923
1.41951
1.41942
1.41915
1.41895
1.41895
1.41889
1.41869
1.41849
1.41828
1.41813
1.41844
1.41941
1.42156
1.42568
1.4319
1.43822
1.44192
1.44293
1.44319
1.44322
1.44318
1.44311
1.44298
1.44281
1.44272
1.44265
1.44246
1.44222
1.44196
1.44162
1.44121
1.44084
1.44044
1.43987
1.43926
1.43868
0.62007
0.62007
0.62007
0.62007
0.62007
0.62007
0.62007
0.62007
0.62007
0.62007
0.62007
0.62007
0.620071
0.620421
0.650852
0.926041
1.30081
1.41058
1.41625
1.42153
1.41986
1.41778
1.41805
1.41852
1.41923
1.41845
1.41706
1.41577
1.41576
1.41691
1.41857
1.41954
1.41985
1.4197
1.41922
1.41873
1.41834
1.41811
1.41804
1.41811
1.41822
1.41832
1.41876
1.41992
1.42249
1.42722
1.43368
1.43942
1.44239
1.44315
1.44338
1.4434
1.44335
1.44332
1.44322
1.443
1.4428
1.44266
1.44242
1.44204
1.44171
1.44136
1.44093
1.44051
1.4401
1.43956
1.43896
1.43839
0.62007
0.62007
0.62007
0.62007
0.62007
0.62007
0.62007
0.62007
0.62007
0.62007
0.62007
0.62007
0.62007
0.62007
0.620235
0.640968
0.865142
1.25174
1.40893
1.42485
1.41844
1.41351
1.41573
1.41701
1.41849
1.41783
1.4168
1.41564
1.41554
1.41662
1.4182
1.41919
1.41955
1.41938
1.41886
1.41842
1.4181
1.41797
1.41784
1.41789
1.41803
1.41831
1.41893
1.42035
1.42338
1.42863
1.43512
1.44017
1.44247
1.44306
1.44324
1.44326
1.44323
1.44323
1.44321
1.44307
1.44286
1.44265
1.44229
1.44182
1.44144
1.44108
1.44067
1.44027
1.43987
1.43933
1.43872
1.43811
0.62007
0.62007
0.62007
0.62007
0.62007
0.62007
0.62007
0.62007
0.62007
0.62007
0.62007
0.62007
0.62007
0.62007
0.62007
0.620158
0.630344
0.813653
1.21413
1.39938
1.40503
1.41302
1.41499
1.41729
1.41811
1.41753
1.41668
1.41582
1.416
1.41697
1.41837
1.41916
1.41916
1.41894
1.41862
1.41841
1.41831
1.41826
1.41809
1.41794
1.41803
1.4183
1.41898
1.42068
1.42433
1.43014
1.43635
1.44074
1.44248
1.44291
1.443
1.44295
1.44288
1.44291
1.44296
1.44291
1.44277
1.44254
1.44216
1.44168
1.44129
1.4409
1.44049
1.4401
1.43971
1.43918
1.43855
1.43787
0.62007
0.62007
0.62007
0.62007
0.62007
0.62007
0.62007
0.62007
0.62007
0.62007
0.62007
0.62007
0.62007
0.62007
0.62007
0.62007
0.620099
0.626352
0.758333
1.15573
1.37098
1.42649
1.42171
1.4193
1.4192
1.41783
1.41661
1.41657
1.4173
1.41856
1.41943
1.41948
1.41904
1.41865
1.4187
1.41881
1.41895
1.41899
1.41872
1.41828
1.4182
1.41846
1.41923
1.42134
1.42569
1.43189
1.43765
1.44124
1.44254
1.44282
1.44291
1.44285
1.44269
1.44269
1.44275
1.44277
1.44267
1.44245
1.44209
1.44164
1.44124
1.44085
1.44044
1.44005
1.43964
1.43911
1.43842
1.43764
0.62007
0.62007
0.62007
0.62007
0.62007
0.62007
0.62007
0.62007
0.62007
0.62007
0.62007
0.62007
0.62007
0.62007
0.62007
0.62007
0.62007
0.620083
0.622853
0.718688
1.07301
1.37511
1.41272
1.41851
1.42055
1.41812
1.41608
1.41627
1.41758
1.41977
1.42039
1.42011
1.41924
1.41867
1.41879
1.41921
1.41955
1.41955
1.41917
1.41856
1.41845
1.41875
1.41979
1.42246
1.42756
1.4339
1.43893
1.44166
1.44262
1.44288
1.44299
1.44292
1.44275
1.44273
1.44274
1.44275
1.44265
1.44242
1.44208
1.44165
1.44127
1.4409
1.44048
1.44008
1.43963
1.43908
1.43835
1.43747
0.62007
0.62007
0.62007
0.62007
0.62007
0.62007
0.62007
0.62007
0.62007
0.62007
0.62007
0.62007
0.62007
0.62007
0.62007
0.62007
0.62007
0.62007
0.620074
0.621397
0.682628
1.0059
1.32089
1.41811
1.42611
1.41856
1.41447
1.41568
1.41757
1.41999
1.42039
1.42001
1.41892
1.41847
1.41868
1.41922
1.41957
1.41949
1.41902
1.4185
1.41854
1.419
1.42049
1.42391
1.42966
1.43576
1.43988
1.44191
1.44273
1.44305
1.44322
1.44316
1.44294
1.44285
1.44281
1.44278
1.44264
1.44242
1.44212
1.44178
1.44147
1.44115
1.44079
1.44038
1.43987
1.43923
1.4384
1.43751
0.62007
0.62007
0.62007
0.62007
0.62007
0.62007
0.62007
0.62007
0.62007
0.62007
0.62007
0.62007
0.62007
0.62007
0.62007
0.62007
0.62007
0.62007
0.62007
0.620072
0.620642
0.655212
0.921331
1.28769
1.41638
1.4111
1.41374
1.41429
1.41622
1.41808
1.41823
1.41818
1.418
1.41813
1.41851
1.41905
1.419
1.41874
1.41834
1.41815
1.41849
1.41936
1.42138
1.42554
1.43162
1.43697
1.44023
1.44193
1.44276
1.44319
1.4435
1.4435
1.44326
1.44307
1.44296
1.44285
1.44264
1.44241
1.44214
1.4419
1.44166
1.44141
1.44114
1.44073
1.44013
1.4394
1.43847
1.43756
0.62007
0.62007
0.62007
0.62007
0.62007
0.62007
0.62007
0.62007
0.62007
0.62007
0.62007
0.62007
0.62007
0.62007
0.62007
0.62007
0.62007
0.62007
0.62007
0.62007
0.620071
0.620273
0.639421
0.832063
1.23732
1.39851
1.42351
1.41877
1.41758
1.41805
1.4175
1.41725
1.41759
1.41858
1.4194
1.41937
1.4189
1.41829
1.41807
1.41833
1.41895
1.42029
1.42286
1.42754
1.43336
1.43777
1.44032
1.44178
1.44267
1.44324
1.44368
1.44373
1.44344
1.44314
1.44297
1.44277
1.44256
1.44231
1.44202
1.44182
1.44168
1.44156
1.44135
1.4409
1.44025
1.43946
1.4385
1.43756
0.62007
0.62007
0.62007
0.62007
0.62007
0.62007
0.62007
0.62007
0.62007
0.62007
0.62007
0.62007
0.62007
0.62007
0.62007
0.62007
0.62007
0.62007
0.62007
0.62007
0.62007
0.62007
0.620146
0.627418
0.777238
1.15167
1.38726
1.42434
1.42274
1.42015
1.41935
1.41804
1.41814
1.41937
1.42027
1.42006
1.41919
1.41821
1.41823
1.41887
1.42017
1.422
1.42493
1.42981
1.43503
1.4386
1.44061
1.44184
1.44278
1.44347
1.44389
1.44383
1.44343
1.44312
1.44294
1.44273
1.44252
1.44229
1.44199
1.44161
1.44133
1.44117
1.44106
1.44077
1.44015
1.43935
1.43837
1.43743
0.62007
0.62007
0.62007
0.62007
0.62007
0.62007
0.62007
0.62007
0.62007
0.62007
0.62007
0.62007
0.62007
0.62007
0.62007
0.62007
0.62007
0.62007
0.62007
0.62007
0.62007
0.62007
0.62007
0.620086
0.623647
0.718819
1.07055
1.34578
1.40967
1.42196
1.4201
1.41932
1.4189
1.41962
1.41991
1.41958
1.41867
1.4179
1.41825
1.41913
1.42084
1.42301
1.42642
1.43152
1.43638
1.43939
1.44096
1.44197
1.44293
1.44368
1.44406
1.44397
1.44357
1.44325
1.44306
1.44291
1.44273
1.4425
1.44215
1.44163
1.44099
1.44052
1.44015
1.43986
1.43943
1.43873
1.43784
1.43695
0.62007
0.62007
0.62007
0.62007
0.62007
0.62007
0.62007
0.62007
0.62007
0.62007
0.62007
0.62007
0.62007
0.62007
0.62007
0.62007
0.62007
0.62007
0.62007
0.62007
0.62007
0.62007
0.62007
0.62007
0.620076
0.621406
0.674826
0.973986
1.3001
1.41471
1.41984
1.41908
1.41778
1.4174
1.41744
1.41725
1.41711
1.41706
1.41746
1.41834
1.4202
1.42268
1.4266
1.43201
1.43703
1.43979
1.44107
1.44195
1.44278
1.44353
1.44395
1.444
1.44376
1.44353
1.44338
1.44334
1.44328
1.44302
1.44261
1.44189
1.44092
1.44006
1.43944
1.43893
1.4385
1.43793
1.43715
1.4362
0.62007
0.62007
0.62007
0.62007
0.62007
0.62007
0.62007
0.62007
0.62007
0.62007
0.62007
0.62007
0.62007
0.62007
0.62007
0.62007
0.62007
0.62007
0.62007
0.62007
0.62007
0.62007
0.62007
0.62007
0.62007
0.620072
0.620504
0.6486
0.856884
1.25713
1.39789
1.41717
1.41584
1.41543
1.41631
1.41677
1.41732
1.41738
1.41742
1.41806
1.41976
1.42226
1.42662
1.43257
1.4376
1.43992
1.44104
1.44172
1.44236
1.44297
1.44347
1.44367
1.44372
1.44372
1.44369
1.4437
1.44372
1.4435
1.44308
1.44241
1.44128
1.43994
1.43907
1.43851
1.43802
1.4375
1.43677
1.4358
0.62007
0.62007
0.62007
0.62007
0.62007
0.62007
0.62007
0.62007
0.62007
0.62007
0.62007
0.62007
0.62007
0.62007
0.62007
0.62007
0.62007
0.62007
0.62007
0.62007
0.62007
0.62007
0.62007
0.62007
0.62007
0.62007
0.620071
0.620212
0.629622
0.789517
1.15581
1.3893
1.42212
1.41941
1.41961
1.42014
1.42113
1.42107
1.42059
1.42045
1.42099
1.42336
1.42818
1.4343
1.43887
1.44066
1.44145
1.44183
1.44229
1.44289
1.44336
1.44355
1.44358
1.44351
1.44347
1.44355
1.44375
1.44363
1.44319
1.4426
1.44165
1.4403
1.43912
1.43847
1.43794
1.43744
1.43672
1.43576
0.62007
0.62007
0.62007
0.62007
0.62007
0.62007
0.62007
0.62007
0.62007
0.62007
0.62007
0.62007
0.62007
0.62007
0.62007
0.62007
0.62007
0.62007
0.62007
0.62007
0.62007
0.62007
0.62007
0.62007
0.62007
0.62007
0.62007
0.62007
0.620095
0.624227
0.719322
1.06299
1.33714
1.41513
1.42367
1.42383
1.42399
1.42342
1.42273
1.42251
1.42294
1.42545
1.43066
1.4366
1.4404
1.44183
1.44242
1.44253
1.44266
1.44327
1.44374
1.44395
1.44397
1.44374
1.44339
1.44311
1.44306
1.4432
1.44298
1.44248
1.44169
1.44054
1.43945
1.43879
1.43823
1.43766
1.43694
1.43603
0.62007
0.62007
0.62007
0.62007
0.62007
0.62007
0.62007
0.62007
0.62007
0.62007
0.62007
0.62007
0.62007
0.62007
0.62007
0.62007
0.62007
0.62007
0.62007
0.62007
0.62007
0.62007
0.62007
0.62007
0.62007
0.62007
0.62007
0.62007
0.62007
0.620077
0.621417
0.670422
0.946087
1.28741
1.4044
1.41757
1.41931
1.41807
1.41895
1.42082
1.42291
1.42631
1.43167
1.43732
1.44067
1.44221
1.44281
1.44311
1.4436
1.44444
1.44495
1.44512
1.44498
1.44435
1.44356
1.44299
1.44257
1.4424
1.44228
1.44196
1.44142
1.44051
1.4396
1.43906
1.43858
1.43807
1.43736
1.4365
0.62007
0.62007
0.62007
0.62007
0.62007
0.62007
0.62007
0.62007
0.62007
0.62007
0.62007
0.62007
0.62007
0.62007
0.62007
0.62007
0.62007
0.62007
0.62007
0.62007
0.62007
0.62007
0.62007
0.62007
0.62007
0.62007
0.62007
0.62007
0.62007
0.62007
0.620072
0.620427
0.642443
0.82569
1.22981
1.38648
1.40777
1.41003
1.41245
1.41666
1.42118
1.42643
1.43242
1.43688
1.43899
1.44045
1.44174
1.44285
1.44407
1.44519
1.44582
1.44602
1.44581
1.44512
1.4441
1.44321
1.4426
1.44215
1.44174
1.4413
1.44078
1.44011
1.43952
1.43904
1.43859
1.43812
1.43744
1.43661
0.62007
0.62007
0.62007
0.62007
0.62007
0.62007
0.62007
0.62007
0.62007
0.62007
0.62007
0.62007
0.62007
0.62007
0.62007
0.62007
0.62007
0.62007
0.62007
0.62007
0.62007
0.62007
0.62007
0.62007
0.62007
0.62007
0.62007
0.62007
0.62007
0.62007
0.62007
0.62007
0.620167
0.626556
0.759831
1.09546
1.37769
1.41462
1.41756
1.42006
1.42486
1.42987
1.43493
1.43705
1.43784
1.43871
1.44006
1.44179
1.44355
1.44508
1.44596
1.44618
1.44598
1.44533
1.44442
1.44377
1.44316
1.44247
1.44178
1.44103
1.4401
1.4392
1.43869
1.43833
1.43809
1.43778
1.43719
1.43638
0.62007
0.62007
0.62007
0.62007
0.62007
0.62007
0.62007
0.62007
0.62007
0.62007
0.62007
0.62007
0.62007
0.62007
0.62007
0.62007
0.62007
0.62007
0.62007
0.62007
0.62007
0.62007
0.62007
0.62007
0.62007
0.62007
0.62007
0.62007
0.62007
0.62007
0.62007
0.62007
0.62007
0.620084
0.622768
0.687073
0.998302
1.29292
1.41886
1.43034
1.43198
1.43523
1.43778
1.4382
1.43832
1.43939
1.44076
1.44233
1.44378
1.44464
1.44485
1.44475
1.44457
1.4443
1.44412
1.44393
1.44355
1.44291
1.44213
1.4411
1.43973
1.43837
1.43764
1.43715
1.43682
1.43645
1.43591
1.43509
0.62007
0.62007
0.62007
0.62007
0.62007
0.62007
0.62007
0.62007
0.62007
0.62007
0.62007
0.62007
0.62007
0.62007
0.62007
0.62007
0.62007
0.62007
0.62007
0.62007
0.62007
0.62007
0.62007
0.62007
0.62007
0.62007
0.62007
0.62007
0.62007
0.62007
0.62007
0.62007
0.62007
0.62007
0.620074
0.620709
0.651049
0.858285
1.23828
1.38066
1.41957
1.43167
1.43731
1.43986
1.44132
1.44214
1.44297
1.44395
1.44453
1.44452
1.444
1.44305
1.4423
1.44211
1.44222
1.44251
1.44292
1.44261
1.44183
1.44084
1.43943
1.43785
1.43696
1.43642
1.43596
1.43541
1.43476
1.43383
0.62007
0.62007
0.62007
0.62007
0.62007
0.62007
0.62007
0.62007
0.62007
0.62007
0.62007
0.62007
0.62007
0.62007
0.62007
0.62007
0.62007
0.62007
0.62007
0.62007
0.62007
0.62007
0.62007
0.62007
0.62007
0.62007
0.62007
0.62007
0.62007
0.62007
0.62007
0.62007
0.62007
0.62007
0.62007
0.620071
0.620226
0.629794
0.761486
1.11317
1.3745
1.44189
1.44499
1.44372
1.44388
1.44338
1.44362
1.44427
1.44461
1.44456
1.4441
1.44308
1.44199
1.44143
1.44107
1.44084
1.44098
1.44093
1.44025
1.43946
1.43837
1.43699
1.4362
1.43569
1.43526
1.43469
1.43391
1.43287
0.62007
0.62007
0.62007
0.62007
0.62007
0.62007
0.62007
0.62007
0.62007
0.62007
0.62007
0.62007
0.62007
0.62007
0.62007
0.62007
0.62007
0.62007
0.62007
0.62007
0.62007
0.62007
0.62007
0.62007
0.62007
0.62007
0.62007
0.62007
0.62007
0.62007
0.62007
0.62007
0.62007
0.62007
0.62007
0.62007
0.62007
0.620095
0.622682
0.695257
0.997528
1.32906
1.41587
1.43358
1.43757
1.43749
1.44014
1.4423
1.44361
1.44414
1.44437
1.444
1.44314
1.44188
1.44083
1.44015
1.43975
1.4396
1.43906
1.43835
1.4373
1.43593
1.43509
1.43454
1.43417
1.43372
1.4329
1.43187
0.62007
0.62007
0.62007
0.62007
0.62007
0.62007
0.62007
0.62007
0.62007
0.62007
0.62007
0.62007
0.62007
0.62007
0.62007
0.62007
0.62007
0.62007
0.62007
0.62007
0.62007
0.62007
0.62007
0.62007
0.62007
0.62007
0.62007
0.62007
0.62007
0.62007
0.62007
0.62007
0.62007
0.62007
0.62007
0.62007
0.62007
0.62007
0.620074
0.620853
0.650814
0.874515
1.24506
1.43433
1.44045
1.44052
1.44012
1.44101
1.44242
1.44314
1.44371
1.44384
1.44325
1.44196
1.44052
1.43982
1.43933
1.43906
1.43858
1.43789
1.43681
1.4354
1.4344
1.43373
1.43319
1.43257
1.43171
1.43066
0.62007
0.62007
0.62007
0.62007
0.62007
0.62007
0.62007
0.62007
0.62007
0.62007
0.62007
0.62007
0.62007
0.62007
0.62007
0.62007
0.62007
0.62007
0.62007
0.62007
0.62007
0.62007
0.62007
0.62007
0.62007
0.62007
0.62007
0.62007
0.62007
0.62007
0.62007
0.62007
0.62007
0.62007
0.62007
0.62007
0.62007
0.62007
0.62007
0.620071
0.620228
0.631063
0.770964
1.16808
1.38145
1.44671
1.44544
1.44074
1.44078
1.44209
1.44203
1.442
1.44165
1.44087
1.43998
1.43936
1.43895
1.43857
1.43805
1.43734
1.43637
1.43518
1.43425
1.43358
1.43277
1.43187
1.43085
1.42976
0.62007
0.62007
0.62007
0.62007
0.62007
0.62007
0.62007
0.62007
0.62007
0.62007
0.62007
0.62007
0.62007
0.62007
0.62007
0.62007
0.62007
0.62007
0.62007
0.62007
0.62007
0.62007
0.62007
0.62007
0.62007
0.62007
0.62007
0.62007
0.62007
0.62007
0.62007
0.62007
0.62007
0.62007
0.62007
0.62007
0.62007
0.62007
0.62007
0.62007
0.62007
0.620099
0.623179
0.709552
1.0231
1.37219
1.43491
1.43729
1.44205
1.44228
1.44095
1.4408
1.4408
1.44023
1.43952
1.43889
1.43837
1.43775
1.43701
1.43627
1.43559
1.43494
1.43435
1.43356
1.43256
1.43146
1.43029
1.42908
0.62007
0.62007
0.62007
0.62007
0.62007
0.62007
0.62007
0.62007
0.62007
0.62007
0.62007
0.62007
0.62007
0.62007
0.62007
0.62007
0.62007
0.62007
0.62007
0.62007
0.62007
0.62007
0.62007
0.62007
0.62007
0.62007
0.62007
0.62007
0.62007
0.62007
0.62007
0.62007
0.62007
0.62007
0.62007
0.62007
0.62007
0.62007
0.62007
0.62007
0.62007
0.62007
0.620075
0.621099
0.658978
0.914775
1.28151
1.43306
1.45481
1.4505
1.44417
1.44187
1.44184
1.44107
1.44016
1.43929
1.43849
1.43761
1.43658
1.43549
1.43454
1.43394
1.43365
1.43309
1.43224
1.43126
1.43016
1.42884
0.62007
0.62007
0.62007
0.62007
0.62007
0.62007
0.62007
0.62007
0.62007
0.62007
0.62007
0.62007
0.62007
0.62007
0.62007
0.62007
0.62007
0.62007
0.62007
0.62007
0.62007
0.62007
0.62007
0.62007
0.62007
0.62007
0.62007
0.62007
0.62007
0.62007
0.62007
0.62007
0.62007
0.62007
0.62007
0.62007
0.62007
0.62007
0.62007
0.62007
0.62007
0.62007
0.62007
0.620071
0.620311
0.634822
0.808907
1.18774
1.41721
1.43346
1.43618
1.4384
1.4414
1.442
1.4415
1.44087
1.44029
1.43934
1.43797
1.43613
1.4343
1.43318
1.43246
1.43213
1.43167
1.43088
1.42991
1.4286
0.62007
0.62007
0.62007
0.62007
0.62007
0.62007
0.62007
0.62007
0.62007
0.62007
0.62007
0.62007
0.62007
0.62007
0.62007
0.62007
0.62007
0.62007
0.62007
0.62007
0.62007
0.62007
0.62007
0.62007
0.62007
0.62007
0.62007
0.62007
0.62007
0.62007
0.62007
0.62007
0.62007
0.62007
0.62007
0.62007
0.62007
0.62007
0.62007
0.62007
0.62007
0.62007
0.62007
0.62007
0.62007
0.620118
0.625151
0.721465
1.0719
1.36201
1.43964
1.44841
1.44609
1.44417
1.44175
1.44099