/*--------------------------------*- C++ -*----------------------------------*\
| =========                 |                                                 |
| \\      /  F ield         | OpenFOAM: The Open Source CFD Toolbox           |
|  \\    /   O peration     | Version:  2306                                  |
|   \\  /    A nd           | Website:  www.openfoam.com                      |
|    \\/     M anipulation  |                                                 |
\*---------------------------------------------------------------------------*/
FoamFile
{
    version     2.0;
    format      ascii;
    arch        "LSB;label=32;scalar=64";
    class       volScalarField;
    location    "8e-05";
    object      T;
}
// * * * * * * * * * * * * * * * * * * * * * * * * * * * * * * * * * * * * * //

dimensions      [0 0 0 1 0 0 0];

internalField   nonuniform List<scalar> 
9032
(
269.31
269.324
269.352
269.398
269.451
269.506
269.57
269.625
269.669
269.706
269.729
269.743
269.764
269.797
269.831
269.869
269.909
269.941
269.962
269.968
269.968
269.968
269.974
269.988
270.008
270.035
270.067
270.107
270.15
270.184
270.201
270.198
270.189
270.179
270.166
270.157
270.153
270.152
270.152
270.149
270.146
270.148
270.171
270.208
270.244
270.282
270.323
270.35
270.363
270.38
270.419
270.512
270.702
271.017
271.429
271.824
272.056
272.14
272.174
272.17
272.161
272.152
272.144
272.136
272.125
272.108
272.08
272.058
269.643
269.644
269.67
269.716
269.763
269.8
269.836
269.87
269.898
269.922
269.941
269.946
269.952
269.968
269.991
270.022
270.056
270.084
270.098
270.101
270.101
270.102
270.108
270.117
270.129
270.144
270.166
270.193
270.219
270.242
270.244
270.238
270.225
270.204
270.178
270.162
270.152
270.15
270.158
270.172
270.182
270.201
270.234
270.272
270.308
270.337
270.353
270.359
270.367
270.385
270.44
270.561
270.784
271.148
271.601
271.982
272.172
272.223
272.219
272.2
272.182
272.164
272.153
272.145
272.135
272.122
272.101
272.075
270.432
270.432
270.427
270.417
270.409
270.404
270.406
270.405
270.397
270.384
270.373
270.354
270.336
270.327
270.327
270.333
270.339
270.346
270.351
270.349
270.343
270.335
270.327
270.327
270.332
270.342
270.357
270.374
270.392
270.397
270.388
270.373
270.352
270.319
270.283
270.259
270.244
270.235
270.241
270.256
270.276
270.301
270.329
270.358
270.386
270.407
270.415
270.415
270.421
270.441
270.504
270.639
270.902
271.309
271.762
272.095
272.244
272.266
272.253
272.228
272.204
272.186
272.175
272.166
272.152
272.134
272.107
272.085
271.248
271.199
271.126
271.057
270.994
270.957
270.938
270.917
270.891
270.857
270.821
270.782
270.739
270.706
270.685
270.673
270.657
270.643
270.638
270.631
270.613
270.599
270.582
270.564
270.547
270.531
270.519
270.513
270.511
270.508
270.504
270.498
270.476
270.439
270.396
270.361
270.332
270.321
270.329
270.35
270.376
270.397
270.412
270.422
270.431
270.439
270.443
270.443
270.447
270.479
270.562
270.732
271.045
271.483
271.908
272.191
272.296
272.301
272.292
272.271
272.246
272.225
272.213
272.202
272.186
272.162
272.132
272.096
271.514
271.434
271.336
271.244
271.177
271.141
271.115
271.088
271.06
271.021
270.977
270.93
270.88
270.842
270.814
270.8
270.778
270.755
270.741
270.732
270.72
270.704
270.683
270.655
270.625
270.597
270.581
270.572
270.564
270.559
270.563
270.566
270.545
270.508
270.471
270.436
270.407
270.393
270.395
270.411
270.431
270.442
270.443
270.442
270.437
270.431
270.429
270.432
270.445
270.489
270.596
270.815
271.18
271.637
272.012
272.243
272.313
272.314
272.31
272.294
272.274
272.252
272.233
272.218
272.198
272.168
272.13
272.078
271.281
271.202
271.129
271.067
271.021
270.999
270.984
270.968
270.947
270.928
270.912
270.878
270.827
270.784
270.76
270.754
270.737
270.714
270.694
270.681
270.673
270.662
270.645
270.627
270.6
270.574
270.561
270.549
270.538
270.532
270.537
270.546
270.534
270.517
270.494
270.459
270.431
270.411
270.404
270.409
270.413
270.41
270.403
270.396
270.389
270.384
270.387
270.399
270.426
270.485
270.617
270.875
271.273
271.713
272.034
272.225
272.287
272.295
272.295
272.284
272.264
272.24
272.216
272.192
272.165
272.128
272.09
272.026
270.538
270.545
270.543
270.532
270.521
270.517
270.512
270.518
270.538
270.559
270.57
270.567
270.551
270.541
270.536
270.537
270.536
270.52
270.497
270.475
270.462
270.462
270.464
270.476
270.48
270.471
270.45
270.418
270.388
270.378
270.382
270.398
270.417
270.426
270.424
270.411
270.392
270.37
270.35
270.333
270.32
270.307
270.297
270.29
270.286
270.285
270.293
270.314
270.351
270.429
270.588
270.881
271.299
271.712
271.985
272.136
272.199
272.215
272.218
272.212
272.195
272.172
272.144
272.109
272.08
272.053
272.024
271.949
269.801
269.873
269.855
269.85
269.853
269.857
269.874
269.908
269.97
270.024
270.052
270.061
270.069
270.084
270.099
270.111
270.13
270.131
270.124
270.115
270.11
270.109
270.12
270.152
270.185
270.188
270.175
270.145
270.108
270.09
270.089
270.101
270.13
270.164
270.189
270.198
270.197
270.187
270.174
270.162
270.147
270.128
270.11
270.099
270.097
270.101
270.114
270.14
270.189
270.288
270.486
270.824
271.258
271.636
271.857
271.973
272.029
272.052
272.054
272.047
272.032
272.012
271.989
271.964
271.94
271.915
271.89
271.807
269.416
269.453
269.417
269.391
269.401
269.416
269.444
269.485
269.544
269.574
269.591
269.604
269.622
269.643
269.658
269.674
269.696
269.719
269.73
269.735
269.741
269.742
269.756
269.786
269.817
269.824
269.82
269.806
269.787
269.778
269.778
269.788
269.811
269.837
269.86
269.88
269.897
269.9
269.898
269.899
269.898
269.893
269.884
269.874
269.871
269.876
269.889
269.916
269.971
270.092
270.331
270.715
271.155
271.486
271.66
271.75
271.798
271.816
271.82
271.812
271.798
271.785
271.772
271.756
271.742
271.722
271.703
271.621
269.37
269.243
269.228
269.238
269.23
269.264
269.304
269.335
269.362
269.363
269.369
269.382
269.406
269.427
269.435
269.448
269.462
269.472
269.481
269.494
269.503
269.503
269.509
269.521
269.532
269.537
269.54
269.541
269.541
269.542
269.54
269.544
269.561
269.578
269.597
269.618
269.644
269.661
269.66
269.663
269.664
269.664
269.664
269.663
269.667
269.674
269.688
269.716
269.78
269.928
270.212
270.63
271.05
271.322
271.458
271.528
271.564
271.572
271.575
271.57
271.561
271.559
271.558
271.551
271.543
271.527
271.509
271.44
269.412
269.114
269.194
269.257
269.234
269.271
269.309
269.321
269.311
269.301
269.311
269.334
269.368
269.392
269.376
269.348
269.345
269.354
269.375
269.407
269.429
269.437
269.436
269.43
269.418
269.409
269.41
269.42
269.433
269.444
269.448
269.448
269.449
269.449
269.449
269.458
269.478
269.497
269.498
269.5
269.506
269.515
269.525
269.538
269.554
269.57
269.591
269.623
269.693
269.863
270.181
270.614
271.001
271.212
271.313
271.363
271.381
271.374
271.371
271.372
271.373
271.382
271.394
271.394
271.389
271.372
271.349
271.296
268.617
269.116
269.399
269.332
269.335
269.379
269.382
269.357
269.325
269.321
269.357
269.396
269.429
269.421
269.357
269.307
269.305
269.321
269.356
269.397
269.425
269.435
269.429
269.413
269.39
269.378
269.376
269.393
269.423
269.442
269.443
269.438
269.425
269.407
269.39
269.389
269.398
269.415
269.423
269.428
269.438
269.458
269.478
269.502
269.524
269.543
269.569
269.605
269.691
269.888
270.239
270.673
271.002
271.165
271.239
271.271
271.269
271.253
271.24
271.247
271.26
271.281
271.301
271.305
271.299
271.276
271.247
271.206
259.18
269.53
269.639
269.362
269.534
269.539
269.469
269.395
269.374
269.382
269.443
269.51
269.543
269.516
269.419
269.345
269.333
269.346
269.39
269.435
269.455
269.455
269.436
269.407
269.385
269.36
269.347
269.358
269.4
269.441
269.453
269.446
269.431
269.411
269.388
269.379
269.376
269.374
269.38
269.393
269.41
269.437
269.47
269.503
269.528
269.547
269.571
269.617
269.73
269.97
270.367
270.79
271.037
271.159
271.22
271.238
271.233
271.213
271.197
271.203
271.228
271.256
271.277
271.278
271.267
271.234
271.19
271.154
219.25
262.133
268.282
269.368
269.779
269.624
269.44
269.422
269.42
269.443
269.543
269.632
269.631
269.574
269.449
269.403
269.411
269.443
269.495
269.511
269.5
269.472
269.43
269.397
269.387
269.389
269.385
269.386
269.416
269.445
269.466
269.47
269.457
269.437
269.414
269.4
269.386
269.368
269.349
269.348
269.361
269.393
269.441
269.494
269.536
269.562
269.59
269.649
269.795
270.086
270.528
270.921
271.104
271.194
271.238
271.246
271.239
271.221
271.213
271.227
271.25
271.276
271.288
271.284
271.264
271.222
271.16
271.12
182.755
220.017
258.611
269.735
270.056
269.36
269.404
269.456
269.413
269.46
269.607
269.679
269.639
269.538
269.447
269.455
269.493
269.563
269.607
269.592
269.54
269.472
269.408
269.383
269.396
269.427
269.44
269.433
269.455
269.472
269.481
269.489
269.49
269.484
269.467
269.448
269.424
269.394
269.367
269.36
269.366
269.392
269.435
269.485
269.532
269.573
269.62
269.707
269.894
270.243
270.713
271.054
271.196
271.266
271.285
271.283
271.272
271.257
271.256
271.271
271.289
271.307
271.31
271.301
271.274
271.228
271.161
271.121
180.01
182.678
217.961
260.362
268.9
269.201
269.498
269.523
269.387
269.47
269.687
269.728
269.625
269.483
269.445
269.464
269.555
269.649
269.662
269.625
269.54
269.442
269.376
269.374
269.412
269.475
269.501
269.495
269.51
269.506
269.505
269.511
269.521
269.525
269.514
269.493
269.46
269.419
269.385
269.38
269.384
269.413
269.457
269.503
269.545
269.589
269.651
269.772
270.018
270.433
270.911
271.177
271.291
271.338
271.345
271.341
271.325
271.307
271.306
271.319
271.332
271.341
271.338
271.323
271.29
271.24
271.166
271.122
180
180.01
182.376
216.786
259.07
269.106
269.94
269.349
269.314
269.586
269.816
269.767
269.566
269.46
269.446
269.482
269.604
269.667
269.651
269.601
269.506
269.408
269.366
269.378
269.447
269.53
269.565
269.577
269.586
269.57
269.552
269.544
269.559
269.558
269.546
269.521
269.481
269.432
269.399
269.393
269.4
269.432
269.483
269.535
269.575
269.619
269.694
269.853
270.162
270.631
271.099
271.293
271.371
271.386
271.38
271.37
271.358
271.349
271.352
271.365
271.372
271.371
271.361
271.336
271.298
271.247
271.174
271.135
180
180
180.008
182.132
214.339
258.994
268.952
269.18
269.321
269.915
269.97
269.734
269.528
269.509
269.498
269.547
269.628
269.635
269.621
269.56
269.46
269.388
269.377
269.403
269.491
269.575
269.626
269.661
269.67
269.658
269.635
269.614
269.606
269.596
269.577
269.545
269.494
269.436
269.41
269.411
269.427
269.469
269.527
269.577
269.614
269.66
269.749
269.946
270.315
270.818
271.236
271.372
271.403
271.404
271.394
271.378
271.372
271.368
271.372
271.387
271.386
271.38
271.365
271.335
271.298
271.253
271.193
271.159
180
180
180
180.007
181.659
213.809
257.786
268.198
269.782
270.271
269.834
269.506
269.521
269.553
269.569
269.605
269.643
269.65
269.617
269.536
269.435
269.396
269.404
269.448
269.531
269.603
269.667
269.699
269.696
269.69
269.681
269.667
269.665
269.651
269.614
269.566
269.505
269.446
269.429
269.438
269.466
269.517
269.578
269.622
269.653
269.701
269.808
270.046
270.468
270.984
271.331
271.403
271.406
271.406
271.398
271.384
271.381
271.38
271.38
271.389
271.386
271.373
271.354
271.324
271.287
271.246
271.199
271.167
180
180
180
180
180.004
181.652
210.777
254.638
268.576
270.232
269.033
269.137
269.587
269.582
269.596
269.634
269.666
269.664
269.616
269.527
269.435
269.42
269.438
269.498
269.567
269.622
269.681
269.7
269.691
269.69
269.693
269.687
269.691
269.69
269.661
269.592
269.52
269.469
269.465
269.474
269.5
269.546
269.599
269.645
269.684
269.738
269.868
270.154
270.62
271.124
271.383
271.405
271.405
271.404
271.4
271.39
271.385
271.384
271.382
271.384
271.381
271.364
271.341
271.311
271.273
271.232
271.188
271.154
180
180
180
180
180
180.005
181.112
207.992
253.591
268.972
268.198
269.455
269.934
269.6
269.612
269.661
269.681
269.662
269.612
269.519
269.435
269.433
269.455
269.524
269.59
269.63
269.675
269.671
269.648
269.651
269.668
269.67
269.683
269.694
269.683
269.636
269.574
269.537
269.52
269.51
269.518
269.549
269.593
269.637
269.688
269.769
269.944
270.289
270.775
271.242
271.398
271.398
271.399
271.4
271.401
271.397
271.392
271.391
271.386
271.38
271.373
271.353
271.327
271.295
271.256
271.213
271.168
271.124
180
180
180
180
180
180
180.002
180.91
204.154
250.61
266.343
270.749
270.055
269.424
269.467
269.639
269.701
269.672
269.6
269.512
269.431
269.426
269.449
269.517
269.595
269.627
269.652
269.631
269.574
269.56
269.572
269.581
269.614
269.658
269.665
269.654
269.623
269.595
269.562
269.528
269.522
269.535
269.562
269.604
269.669
269.784
270.015
270.426
270.922
271.328
271.391
271.386
271.384
271.387
271.396
271.397
271.395
271.391
271.384
271.373
271.36
271.338
271.31
271.277
271.238
271.192
271.144
271.092
180
180
180
180
180
180
180
180.002
180.6
200.419
245.74
268.797
269.218
268.995
269.409
269.564
269.628
269.624
269.586
269.527
269.446
269.407
269.419
269.474
269.565
269.624
269.616
269.577
269.498
269.455
269.461
269.474
269.518
269.57
269.617
269.633
269.626
269.608
269.571
269.529
269.503
269.501
269.516
269.554
269.634
269.795
270.087
270.55
271.045
271.372
271.378
271.372
271.363
271.366
271.38
271.39
271.388
271.382
271.374
271.361
271.346
271.327
271.3
271.268
271.229
271.182
271.126
271.063
180
180
180
180
180
180
180
180
180.001
180.378
197.023
243.618
266.574
269.088
269.389
269.464
269.582
269.615
269.606
269.576
269.498
269.409
269.388
269.415
269.506
269.575
269.563
269.518
269.426
269.355
269.361
269.381
269.423
269.478
269.547
269.581
269.592
269.588
269.556
269.52
269.481
269.462
269.474
269.516
269.611
269.806
270.158
270.654
271.132
271.375
271.373
271.363
271.345
271.34
271.348
271.362
271.365
271.361
271.356
271.347
271.333
271.315
271.291
271.26
271.219
271.171
271.115
271.051
180
180
180
180
180
180
180
180
180
180.001
180.259
193.335
238.72
265.387
269.435
269.549
269.641
269.691
269.678
269.629
269.524
269.407
269.383
269.407
269.484
269.524
269.505
269.46
269.376
269.322
269.328
269.342
269.375
269.437
269.499
269.532
269.556
269.559
269.534
269.507
269.474
269.444
269.457
269.503
269.613
269.844
270.244
270.752
271.186
271.37
271.371
271.362
271.342
271.324
271.318
271.322
271.327
271.33
271.333
271.331
271.32
271.302
271.278
271.247
271.205
271.157
271.102
271.046
180
180
180
180
180
180
180
180
180
180
180
180.155
189.934
232.773
264.467
268.965
269.872
269.602
269.482
269.51
269.479
269.405
269.396
269.425
269.496
269.499
269.469
269.408
269.332
269.33
269.36
269.39
269.418
269.456
269.489
269.504
269.531
269.533
269.513
269.5
269.483
269.458
269.471
269.527
269.654
269.919
270.357
270.855
271.223
271.369
271.375
271.37
271.353
271.327
271.304
271.296
271.299
271.304
271.311
271.315
271.309
271.29
271.265
271.235
271.196
271.147
271.093
271.044
180
180
180
180
180
180
180
180
180
180
180
180
180.083
187.037
227.698
261.233
268.486
269.063
269.191
269.455
269.466
269.42
269.421
269.443
269.516
269.5
269.459
269.381
269.334
269.36
269.414
269.458
269.488
269.502
269.504
269.501
269.501
269.499
269.491
269.494
269.494
269.487
269.509
269.578
269.731
270.032
270.5
270.967
271.264
271.375
271.39
271.388
271.373
271.34
271.305
271.287
271.287
271.293
271.298
271.3
271.295
271.278
271.25
271.222
271.188
271.14
271.087
271.041
180
180
180
180
180
180
180
180
180
180
180
180
180
180.046
184.498
221.587
259.928
269.025
269.387
269.77
269.608
269.382
269.385
269.422
269.508
269.489
269.447
269.369
269.355
269.408
269.491
269.536
269.556
269.547
269.524
269.503
269.482
269.468
269.471
269.485
269.506
269.517
269.551
269.635
269.822
270.169
270.653
271.07
271.306
271.4
271.419
271.417
271.399
271.362
271.316
271.289
271.285
271.29
271.296
271.293
271.286
271.269
271.239
271.204
271.167
271.121
271.07
271.03
180
180
180
180
180
180
180
180
180
180
180
180
180
180
180.021
183.025
214.231
254.766
269.041
270.146
269.655
269.186
269.309
269.375
269.511
269.498
269.481
269.421
269.407
269.462
269.534
269.563
269.573
269.555
269.523
269.51
269.501
269.493
269.488
269.494
269.512
269.541
269.591
269.696
269.919
270.307
270.789
271.146
271.335
271.414
271.428
271.425
271.406
271.366
271.319
271.292
271.29
271.293
271.296
271.291
271.282
271.264
271.232
271.197
271.159
271.112
271.063
271.024
180
180
180
180
180
180
180
180
180
180
180
180
180
180
180
180.011
181.454
207.93
251.923
268.292
268.694
269.236
269.309
269.433
269.515
269.511
269.508
269.472
269.488
269.534
269.577
269.587
269.573
269.546
269.531
269.535
269.539
269.539
269.525
269.515
269.527
269.555
269.611
269.741
270.013
270.445
270.903
271.203
271.358
271.423
271.429
271.421
271.395
271.353
271.311
271.29
271.29
271.295
271.302
271.297
271.285
271.264
271.23
271.193
271.154
271.107
271.058
271.016
180
180
180
180
180
180
180
180
180
180
180
180
180
180
180
180
180.003
180.875
200.673
245.965
265.596
270.22
269.847
269.578
269.556
269.505
269.492
269.511
269.577
269.629
269.634
269.618
269.565
269.538
269.548
269.573
269.592
269.594
269.57
269.54
269.539
269.565
269.631
269.794
270.121
270.584
271.006
271.246
271.377
271.434
271.443
271.432
271.394
271.348
271.309
271.298
271.298
271.305
271.312
271.306
271.292
271.269
271.233
271.193
271.149
271.101
271.05
271.003
180
180
180
180
180
180
180
180
180
180
180
180
180
180
180
180
180
180.002
180.383
194.754
237.031
265.829
268.983
269.347
269.568
269.444
269.395
269.43
269.519
269.638
269.667
269.64
269.569
269.535
269.552
269.592
269.617
269.616
269.584
269.546
269.543
269.574
269.661
269.868
270.251
270.724
271.09
271.278
271.389
271.445
271.458
271.445
271.403
271.356
271.323
271.318
271.316
271.322
271.325
271.317
271.302
271.276
271.239
271.195
271.146
271.097
271.043
270.991
180
180
180
180
180
180
180
180
180
180
180
180
180
180
180
180
180
180
180
180.179
189.36
230.057
260.854
269.197
269.95
269.446
269.233
269.33
269.448
269.603
269.632
269.609
269.539
269.517
269.54
269.578
269.597
269.589
269.553
269.526
269.534
269.577
269.697
269.958
270.388
270.841
271.14
271.298
271.399
271.452
271.469
271.458
271.416
271.37
271.346
271.34
271.334
271.337
271.338
271.331
271.318
271.296
271.26
271.215
271.16
271.103
271.043
270.991
180
180
180
180
180
180
180
180
180
180
180
180
180
180
180
180
180
180
180
180
180.076
185.182
220.847
258.235
269.287
268.924
269.181
269.21
269.335
269.467
269.475
269.479
269.479
269.496
269.53
269.558
269.547
269.518
269.492
269.49
269.522
269.594
269.749
270.06
270.511
270.905
271.149
271.301
271.4
271.453
271.474
271.468
271.431
271.391
271.37
271.358
271.346
271.342
271.338
271.334
271.324
271.308
271.282
271.235
271.173
271.107
271.041
270.988
180
180
180
180
180
180
180
180
180
180
180
180
180
180
180
180
180
180
180
180
180
180.026
182.785
210.461
253.898
268.026
269.97
269.594
269.479
269.505
269.455
269.433
269.461
269.542
269.595
269.585
269.537
269.484
269.473
269.499
269.555
269.658
269.848
270.193
270.624
270.948
271.15
271.292
271.39
271.449
271.468
271.465
271.431
271.397
271.379
271.361
271.345
271.33
271.32
271.317
271.314
271.31
271.292
271.245
271.178
271.108
271.038
270.982
180
180
180
180
180
180
180
180
180
180
180
180
180
180
180
180
180
180
180
180
180
180
180.009
181.037
203.019
245.364
267.248
270.077
269.917
269.677
269.602
269.492
269.497
269.59
269.655
269.635
269.56
269.484
269.488
269.543
269.646
269.782
269.996
270.354
270.739
271.007
271.179
271.303
271.394
271.453
271.458
271.448
271.415
271.394
271.382
271.366
271.346
271.324
271.304
271.286
271.277
271.271
271.263
271.233
271.171
271.099
271.025
270.968
180
180
180
180
180
180
180
180
180
180
180
180
180
180
180
180
180
180
180
180
180
180
180
180.002
180.494
194.982
237.204
263.416
268.82
269.787
269.644
269.57
269.534
269.588
269.613
269.588
269.519
269.465
269.496
269.57
269.698
269.855
270.102
270.477
270.84
271.078
271.226
271.324
271.402
271.448
271.445
271.431
271.41
271.401
271.395
271.384
271.362
271.333
271.303
271.271
271.237
271.211
271.188
271.162
271.116
271.05
270.981
270.925
180
180
180
180
180
180
180
180
180
180
180
180
180
180
180
180
180
180
180
180
180
180
180
180
180.001
180.182
188.261
226.926
259.132
269.076
269.549
269.513
269.443
269.416
269.417
269.407
269.41
269.413
269.453
269.52
269.651
269.826
270.11
270.513
270.896
271.131
271.258
271.332
271.383
271.411
271.409
271.414
271.413
271.418
271.418
271.415
271.4
271.363
271.323
271.277
271.22
271.169
271.129
271.088
271.044
270.987
270.923
270.859
180
180
180
180
180
180
180
180
180
180
180
180
180
180
180
180
180
180
180
180
180
180
180
180
180
180
180.058
184.2
213.359
255.417
267.743
269.414
269.348
269.28
269.329
269.373
269.44
269.469
269.474
269.506
269.614
269.787
270.105
270.554
270.951
271.166
271.27
271.313
271.335
271.345
271.357
271.378
271.408
271.433
271.436
271.433
271.422
271.387
271.348
271.306
271.242
271.158
271.099
271.053
271.002
270.948
270.886
270.818
180
180
180
180
180
180
180
180
180
180
180
180
180
180
180
180
180
180
180
180
180
180
180
180
180
180
180
180.018
181.354
204.834
245.799
267.337
269.939
269.607
269.533
269.597
269.753
269.784
269.741
269.682
269.704
269.858
270.212
270.684
271.062
271.241
271.304
271.31
271.316
271.33
271.349
271.373
271.399
271.413
271.411
271.408
271.411
271.392
271.355
271.323
271.273
271.187
271.104
271.048
270.994
270.939
270.877
270.812
180
180
180
180
180
180
180
180
180
180
180
180
180
180
180
180
180
180
180
180
180
180
180
180
180
180
180
180
180.003
180.579
195.083
236.493
262.835
268.954
269.75
269.912
270.003
269.981
269.922
269.833
269.844
270.009
270.397
270.869
271.201
271.332
271.358
271.349
271.339
271.361
271.391
271.416
271.437
271.424
271.394
271.363
271.352
271.359
271.347
271.326
271.288
271.214
271.13
271.072
271.014
270.956
270.896
270.84
180
180
180
180
180
180
180
180
180
180
180
180
180
180
180
180
180
180
180
180
180
180
180
180
180
180
180
180
180
180.001
180.184
187.645
223.823
257.888
268.122
269.442
269.701
269.604
269.642
269.725
269.841
270.079
270.489
270.948
271.239
271.348
271.375
271.386
271.408
271.461
271.506
271.525
271.515
271.464
271.398
271.35
271.32
271.316
271.318
271.311
271.288
271.23
271.157
271.103
271.052
271.002
270.946
270.901
180
180
180
180
180
180
180
180
180
180
180
180
180
180
180
180
180
180
180
180
180
180
180
180
180
180
180
180
180
180
180
180.048
183.259
209.686
253.024
266.702
269.005
269.036
269.146
269.41
269.723
270.107
270.569
270.943
271.114
271.209
271.296
271.378
271.468
271.554
271.605
271.615
271.592
271.525
271.438
271.375
271.341
271.325
271.314
271.301
271.275
271.225
271.177
271.133
271.091
271.052
271.005
270.969
180
180
180
180
180
180
180
180
180
180
180
180
180
180
180
180
180
180
180
180
180
180
180
180
180
180
180
180
180
180
180
180
180.012
180.916
201.114
239.88
266.587
269.301
269.46
269.656
270.013
270.384
270.778
270.979
271.039
271.093
271.19
271.325
271.469
271.594
271.65
271.657
271.635
271.572
271.497
271.453
271.422
271.394
271.37
271.337
271.277
271.208
271.166
271.138
271.12
271.101
271.066
271.039
180
180
180
180
180
180
180
180
180
180
180
180
180
180
180
180
180
180
180
180
180
180
180
180
180
180
180
180
180
180
180
180
180
180.002
180.376
190.18
229.948
258.665
269.505
270.46
270.562
270.793
271.007
271.081
271.108
271.193
271.292
271.408
271.532
271.616
271.628
271.62
271.598
271.569
271.555
271.552
271.545
271.526
271.495
271.433
271.333
271.231
271.18
271.149
271.131
271.115
271.086
271.067
180
180
180
180
180
180
180
180
180
180
180
180
180
180
180
180
180
180
180
180
180
180
180
180
180
180
180
180
180
180
180
180
180
180
180
180.086
184.631
213.755
253.768
266.509
269.571
270.548
271.017
271.247
271.406
271.498
271.564
271.619
271.677
271.7
271.679
271.624
271.566
271.547
271.554
271.591
271.648
271.643
271.613
271.556
271.454
271.336
271.276
271.247
271.228
271.205
271.171
271.155
180
180
180
180
180
180
180
180
180
180
180
180
180
180
180
180
180
180
180
180
180
180
180
180
180
180
180
180
180
180
180
180
180
180
180
180
180.02
181.387
201.175
241.504
265.898
271.493
271.677
271.606
271.699
271.717
271.739
271.776
271.82
271.85
271.851
271.805
271.73
271.692
271.676
271.673
271.7
271.712
271.69
271.66
271.594
271.495
271.44
271.41
271.39
271.367
271.324
271.309
180
180
180
180
180
180
180
180
180
180
180
180
180
180
180
180
180
180
180
180
180
180
180
180
180
180
180
180
180
180
180
180
180
180
180
180
180
180.003
180.363
191.525
229.495
262.03
269.354
271.083
271.408
271.396
271.6
271.784
271.947
272.059
272.125
272.115
272.061
271.971
271.905
271.867
271.851
271.857
271.846
271.827
271.776
271.682
271.619
271.578
271.554
271.535
271.487
271.475
180
180
180
180
180
180
180
180
180
180
180
180
180
180
180
180
180
180
180
180
180
180
180
180
180
180
180
180
180
180
180
180
180
180
180
180
180
180
180
180.106
184.575
216.041
254.85
271.935
271.932
271.754
271.777
271.956
272.136
272.234
272.315
272.351
272.326
272.249
272.146
272.094
272.063
272.058
272.048
272.029
271.977
271.882
271.806
271.751
271.707
271.671
271.62
271.604
180
180
180
180
180
180
180
180
180
180
180
180
180
180
180
180
180
180
180
180
180
180
180
180
180
180
180
180
180
180
180
180
180
180
180
180
180
180
180
180
180.02
181.584
202.731
248.229
267.213
272.512
272.45
272.204
272.229
272.33
272.341
272.386
272.383
272.355
272.304
272.258
272.23
272.211
272.192
272.167
272.124
272.049
271.974
271.912
271.845
271.789
271.733
271.709
180
180
180
180
180
180
180
180
180
180
180
180
180
180
180
180
180
180
180
180
180
180
180
180
180
180
180
180
180
180
180
180
180
180
180
180
180
180
180
180
180
180.004
180.437
193.846
232.625
266.56
271.76
272.024
272.439
272.461
272.361
272.384
272.412
272.398
272.375
272.342
272.306
272.262
272.221
272.193
272.169
272.136
272.086
272.009
271.926
271.86
271.804
271.766
180
180
180
180
180
180
180
180
180
180
180
180
180
180
180
180
180
180
180
180
180
180
180
180
180
180
180
180
180
180
180
180
180
180
180
180
180
180
180
180
180
180
180.001
180.141
185.852
220.855
258.654
271.948
273.495
273.159
272.649
272.508
272.546
272.538
272.51
272.451
272.379
272.303
272.238
272.184
272.142
272.107
272.078
272.018
271.944
271.891
271.846
271.796
180
180
180
180
180
180
180
180
180
180
180
180
180
180
180
180
180
180
180
180
180
180
180
180
180
180
180
180
180
180
180
180
180
180
180
180
180
180
180
180
180
180
180
180
180.031
182.154
208.009
250.077
270.741
271.915
272.071
272.286
272.591
272.691
272.664
272.604
272.533
272.449
272.364
272.262
272.155
272.077
272.011
271.963
271.915
271.876
271.845
271.796
180
180
180
180
180
180
180
180
180
180
180
180
180
180
180
180
180
180
180
180
180
180
180
180
180
180
180
180
180
180
180
180
180
180
180
180
180
180
180
180
180
180
180
180
180
180.006
180.723
195.79
238.246
265.761
272.211
273.124
273.001
272.89
272.699
272.598
272.545
272.518
272.483
272.407
272.245
272.068
271.967
271.908
271.875
271.839
271.816
271.773
180
180
180
180
180
180
180
180
180
180
180
180
180
180
180
180
180
180
180
180
180
180
180
180
180
180
180
180
180
180
180
180
180
180
180
180
180
180
180
180
180
180
180
180
180
180
180.001
180.184
187.488
223.544
259.646
272.379
272.798
272.613
272.274
272.097
272.128
272.33
272.45
272.42
272.295
272.092
271.959
271.883
271.847
271.816
271.792
271.744
180
180
180
180
180
180
180
180
180
180
180
180
180
180
180
180
180
180
180
180
180
180
180
180
180
180
180
180
180
180
180
180
180
180
180
180
180
180
180
180
180
180
180
180
180
180
180
180
180.047
182.786
208.186
252.486
270.701
272.56
272.194
271.909
271.968
272.206
272.375
272.316
272.209
272.066
271.946
271.873
271.828
271.799
271.772
271.722
180
180
180
180
180
180
180
180
180
180
180
180
180
180
180
180
180
180
180
180
180
180
180
180
180
180
180
180
180
180
180
180
180
180
180
180
180
180
180
180
180
180
180
180
180
180
180
180
180
180.009
180.741
197.646
238.417
266.839
272.911
272.757
272.733
272.644
272.392
272.238
272.136
272.041
271.925
271.839
271.788
271.758
271.738
271.688
180
180
180
180
180
180
180
180
180
180
180
180
180
180
180
180
180
180
180
180
180
180
180
180
180
180
180
180
180
180
180
180
180
180
180
180
180
180
180
180
180
180
180
180
180
180
180
180
180
180
180.001
180.24
187.972
223.23
259.31
270.493
273.074
272.922
272.334
272.217
272.165
272.091
271.951
271.805
271.737
271.696
271.677
271.632
180
180
180
180
180
180
180
180
180
180
180
180
180
180
180
180
180
180
180
180
180
180
180
180
180
180
180
180
180
180
180
180
180
180
180
180
180
180
180
180
180
180
180
180
180
180
180
180
180
180
180
180
180.05
182.572
208.304
248.245
270.123
271.381
271.563
271.917
272.24
272.155
271.98
271.784
271.706
271.664
271.637
271.569
180
180
180
180
180
180
180
180
180
180
180
180
180
180
180
180
180
180
180
180
180
180
180
180
180
180
180
180
180
180
180
180
180
180
180
180
180
180
180
180
180
180
180
180
180
180
180
180
180
180
180
180
180
180.008
180.729
194.118
234.279
262.155
271.778
272.817
272.766
272.282
271.913
271.691
271.673
271.668
271.649
271.55
180
180
180
180
180
180
180
180
180
180
180
180
180
180
180
180
180
180
180
180
180
180
180
180
180
180
180
180
180
180
180
180
180
180
180
180
180
180
180
180
180
180
180
180
180
180
180
180
180
180
180
180
180
180
180.001
180.146
185.626
215.678
255.52
269.828
271.632
271.661
271.612
271.583
271.615
271.671
271.66
271.552
180
180
180
180
180
180
180
180
180
180
180
180
180
180
180
180
180
180
180
180
180
180
180
180
180
180
180
180
180
180
180
180
180
180
180
180
180
180
180
180
180
180
180
180
180
180
180
180
180
180
180
180
180
180
180
180
180.029
181.495
200.859
241.374
265.378
272.306
272.335
272.048
271.813
271.662
271.55
271.434
180
180
180
180
180
180
180
180
180
180
180
180
180
180
180
180
180
180
180
180
180
180
180
180
180
180
180
180
180
180
180
180
180
180
180
180
180
180
180
180
180
180
180
180
180
180
180
180
180
180
180
180
180
180
180
180
180
180.003
180.33
189.637
222.102
260.228
269.184
270.954
271.342
271.172
271.158
271.234
180
180
180
180
180
180
180
180
180
180
180
180
180
180
180
180
180
180
180
180
180
180
180
180
180
180
180
180
180
180
180
180
180
180
180
180
180
180
180
180
180
180
180
180
180
180
180
180
180
180
180
180
180
180
180
180
180
180
180
180.072
182.441
207.127
243.643
267.857
271.842
271.041
271.268
271.301
180
180
180
180
180
180
180
180
180
180
180
180
180
180
180
180
180