/*--------------------------------*- C++ -*----------------------------------*\
| =========                 |                                                 |
| \\      /  F ield         | OpenFOAM: The Open Source CFD Toolbox           |
|  \\    /   O peration     | Version:  2306                                  |
|   \\  /    A nd           | Website:  www.openfoam.com                      |
|    \\/     M anipulation  |                                                 |
\*---------------------------------------------------------------------------*/
FoamFile
{
    version     2.0;
    format      ascii;
    arch        "LSB;label=32;scalar=64";
    class       volVectorField;
    location    "8e-05";
    object      U;
}
// * * * * * * * * * * * * * * * * * * * * * * * * * * * * * * * * * * * * * //

dimensions      [0 1 -1 0 0 0 0];

internalField   nonuniform List<vector> 
9032
(
(365.547 155.157 0)
(365.673 155.189 0)
(365.763 155.266 0)
(365.743 155.33 0)
(365.624 155.32 0)
(365.49 155.238 0)
(365.406 155.151 0)
(365.36 155.104 0)
(365.326 155.099 0)
(365.281 155.099 0)
(365.216 155.087 0)
(365.135 155.047 0)
(365.112 155.001 0)
(365.137 154.972 0)
(365.168 154.949 0)
(365.185 154.95 0)
(365.168 154.953 0)
(365.115 154.939 0)
(365.057 154.911 0)
(365.004 154.89 0)
(364.953 154.885 0)
(364.904 154.898 0)
(364.868 154.92 0)
(364.851 154.942 0)
(364.841 154.956 0)
(364.825 154.959 0)
(364.797 154.947 0)
(364.771 154.922 0)
(364.751 154.886 0)
(364.727 154.853 0)
(364.707 154.829 0)
(364.684 154.815 0)
(364.682 154.831 0)
(364.711 154.855 0)
(364.759 154.878 0)
(364.817 154.896 0)
(364.872 154.902 0)
(364.916 154.884 0)
(364.924 154.856 0)
(364.876 154.824 0)
(364.775 154.791 0)
(364.666 154.76 0)
(364.596 154.756 0)
(364.545 154.756 0)
(364.527 154.766 0)
(364.563 154.789 0)
(364.651 154.806 0)
(364.698 154.807 0)
(364.676 154.792 0)
(364.611 154.764 0)
(364.452 154.731 0)
(364.112 154.655 0)
(363.508 154.478 0)
(362.55 154.177 0)
(361.322 153.754 0)
(360.217 153.231 0)
(359.494 152.791 0)
(359.21 152.554 0)
(359.114 152.438 0)
(359.085 152.414 0)
(359.084 152.431 0)
(359.103 152.441 0)
(359.124 152.453 0)
(359.141 152.461 0)
(359.161 152.47 0)
(359.186 152.486 0)
(359.213 152.514 0)
(359.271 152.546 0)
(365.375 155.072 0)
(365.35 155.182 0)
(365.339 155.203 0)
(365.321 155.167 0)
(365.284 155.115 0)
(365.221 155.069 0)
(365.154 155.015 0)
(365.099 154.974 0)
(365.056 154.974 0)
(365.02 154.962 0)
(364.996 154.924 0)
(364.968 154.895 0)
(364.955 154.876 0)
(364.972 154.851 0)
(364.999 154.814 0)
(365.017 154.772 0)
(365.019 154.731 0)
(365.006 154.7 0)
(364.98 154.679 0)
(364.942 154.673 0)
(364.899 154.69 0)
(364.855 154.724 0)
(364.819 154.77 0)
(364.792 154.817 0)
(364.763 154.864 0)
(364.723 154.91 0)
(364.686 154.934 0)
(364.655 154.929 0)
(364.631 154.906 0)
(364.615 154.875 0)
(364.599 154.846 0)
(364.591 154.845 0)
(364.595 154.889 0)
(364.614 154.96 0)
(364.643 155.019 0)
(364.691 155.042 0)
(364.747 155.039 0)
(364.785 154.988 0)
(364.802 154.891 0)
(364.786 154.778 0)
(364.729 154.698 0)
(364.659 154.67 0)
(364.593 154.663 0)
(364.549 154.67 0)
(364.545 154.693 0)
(364.583 154.74 0)
(364.621 154.814 0)
(364.627 154.843 0)
(364.595 154.834 0)
(364.518 154.787 0)
(364.347 154.703 0)
(364.006 154.542 0)
(363.381 154.282 0)
(362.375 153.849 0)
(361.152 153.28 0)
(360.148 152.837 0)
(359.519 152.565 0)
(359.298 152.463 0)
(359.203 152.428 0)
(359.144 152.433 0)
(359.116 152.471 0)
(359.11 152.512 0)
(359.111 152.528 0)
(359.123 152.531 0)
(359.145 152.536 0)
(359.175 152.551 0)
(359.212 152.588 0)
(359.254 152.647 0)
(364.328 155.077 0)
(364.383 154.841 0)
(364.489 154.697 0)
(364.523 154.72 0)
(364.541 154.766 0)
(364.533 154.764 0)
(364.499 154.735 0)
(364.451 154.7 0)
(364.415 154.703 0)
(364.399 154.738 0)
(364.415 154.759 0)
(364.445 154.758 0)
(364.474 154.744 0)
(364.495 154.714 0)
(364.508 154.695 0)
(364.505 154.697 0)
(364.503 154.705 0)
(364.524 154.705 0)
(364.55 154.695 0)
(364.548 154.701 0)
(364.529 154.731 0)
(364.504 154.769 0)
(364.481 154.809 0)
(364.471 154.833 0)
(364.465 154.845 0)
(364.466 154.846 0)
(364.461 154.823 0)
(364.447 154.774 0)
(364.435 154.711 0)
(364.419 154.679 0)
(364.407 154.673 0)
(364.418 154.714 0)
(364.441 154.78 0)
(364.467 154.847 0)
(364.494 154.889 0)
(364.537 154.897 0)
(364.578 154.88 0)
(364.602 154.818 0)
(364.614 154.737 0)
(364.611 154.658 0)
(364.581 154.619 0)
(364.525 154.606 0)
(364.471 154.608 0)
(364.439 154.614 0)
(364.444 154.645 0)
(364.48 154.695 0)
(364.515 154.709 0)
(364.512 154.71 0)
(364.473 154.692 0)
(364.365 154.659 0)
(364.149 154.572 0)
(363.728 154.405 0)
(362.98 154.086 0)
(361.853 153.585 0)
(360.632 153.023 0)
(359.762 152.688 0)
(359.33 152.522 0)
(359.199 152.508 0)
(359.146 152.506 0)
(359.102 152.517 0)
(359.071 152.535 0)
(359.049 152.548 0)
(359.045 152.555 0)
(359.053 152.566 0)
(359.072 152.59 0)
(359.101 152.63 0)
(359.133 152.682 0)
(359.175 152.708 0)
(363.38 154.406 0)
(363.467 154.372 0)
(363.575 154.48 0)
(363.687 154.588 0)
(363.767 154.584 0)
(363.789 154.551 0)
(363.764 154.528 0)
(363.731 154.524 0)
(363.726 154.548 0)
(363.77 154.595 0)
(363.857 154.621 0)
(363.932 154.632 0)
(363.962 154.647 0)
(363.961 154.658 0)
(363.944 154.643 0)
(363.937 154.616 0)
(363.959 154.579 0)
(364.028 154.532 0)
(364.119 154.499 0)
(364.175 154.496 0)
(364.182 154.505 0)
(364.167 154.557 0)
(364.137 154.648 0)
(364.119 154.734 0)
(364.12 154.776 0)
(364.108 154.768 0)
(364.087 154.722 0)
(364.069 154.631 0)
(364.063 154.538 0)
(364.085 154.472 0)
(364.122 154.462 0)
(364.162 154.518 0)
(364.206 154.595 0)
(364.239 154.67 0)
(364.253 154.717 0)
(364.272 154.722 0)
(364.298 154.697 0)
(364.314 154.649 0)
(364.329 154.601 0)
(364.342 154.558 0)
(364.331 154.551 0)
(364.286 154.568 0)
(364.242 154.593 0)
(364.216 154.627 0)
(364.219 154.656 0)
(364.251 154.657 0)
(364.287 154.638 0)
(364.294 154.615 0)
(364.255 154.571 0)
(364.142 154.508 0)
(363.871 154.404 0)
(363.38 154.186 0)
(362.507 153.806 0)
(361.292 153.292 0)
(360.147 152.786 0)
(359.428 152.522 0)
(359.118 152.423 0)
(359.039 152.425 0)
(359.004 152.454 0)
(358.976 152.487 0)
(358.946 152.513 0)
(358.914 152.544 0)
(358.911 152.576 0)
(358.928 152.601 0)
(358.951 152.63 0)
(358.983 152.664 0)
(359.02 152.702 0)
(359.062 152.705 0)
(362.961 154.211 0)
(363.114 154.19 0)
(363.292 154.238 0)
(363.437 154.285 0)
(363.509 154.307 0)
(363.504 154.314 0)
(363.477 154.313 0)
(363.469 154.316 0)
(363.5 154.328 0)
(363.586 154.363 0)
(363.702 154.414 0)
(363.762 154.461 0)
(363.775 154.49 0)
(363.747 154.513 0)
(363.693 154.5 0)
(363.654 154.475 0)
(363.642 154.441 0)
(363.692 154.417 0)
(363.793 154.392 0)
(363.893 154.396 0)
(363.931 154.448 0)
(363.936 154.5 0)
(363.929 154.545 0)
(363.909 154.566 0)
(363.883 154.561 0)
(363.847 154.536 0)
(363.807 154.488 0)
(363.777 154.443 0)
(363.767 154.414 0)
(363.797 154.409 0)
(363.865 154.448 0)
(363.947 154.511 0)
(364.008 154.569 0)
(364.064 154.631 0)
(364.067 154.684 0)
(364.057 154.704 0)
(364.066 154.687 0)
(364.076 154.659 0)
(364.087 154.625 0)
(364.101 154.585 0)
(364.095 154.558 0)
(364.071 154.545 0)
(364.056 154.531 0)
(364.062 154.512 0)
(364.078 154.5 0)
(364.098 154.496 0)
(364.12 154.486 0)
(364.121 154.467 0)
(364.065 154.452 0)
(363.927 154.413 0)
(363.634 154.282 0)
(363.049 154.006 0)
(362.05 153.579 0)
(360.784 153.073 0)
(359.748 152.644 0)
(359.178 152.481 0)
(358.967 152.411 0)
(358.903 152.418 0)
(358.873 152.447 0)
(358.851 152.477 0)
(358.822 152.507 0)
(358.785 152.533 0)
(358.771 152.553 0)
(358.791 152.567 0)
(358.823 152.587 0)
(358.863 152.609 0)
(358.914 152.631 0)
(358.944 152.624 0)
(363.039 154.127 0)
(363.167 154.134 0)
(363.319 154.179 0)
(363.424 154.185 0)
(363.451 154.208 0)
(363.417 154.214 0)
(363.382 154.201 0)
(363.377 154.194 0)
(363.412 154.196 0)
(363.503 154.179 0)
(363.638 154.206 0)
(363.712 154.275 0)
(363.71 154.347 0)
(363.646 154.423 0)
(363.562 154.46 0)
(363.525 154.459 0)
(363.524 154.433 0)
(363.566 154.398 0)
(363.651 154.368 0)
(363.75 154.369 0)
(363.815 154.406 0)
(363.834 154.443 0)
(363.828 154.47 0)
(363.804 154.491 0)
(363.759 154.489 0)
(363.71 154.459 0)
(363.668 154.426 0)
(363.642 154.397 0)
(363.644 154.383 0)
(363.683 154.397 0)
(363.767 154.432 0)
(363.875 154.468 0)
(363.95 154.498 0)
(363.994 154.533 0)
(364.011 154.569 0)
(363.995 154.593 0)
(363.976 154.594 0)
(363.974 154.584 0)
(363.977 154.57 0)
(363.995 154.543 0)
(363.994 154.524 0)
(363.984 154.506 0)
(363.964 154.483 0)
(363.954 154.469 0)
(363.956 154.467 0)
(363.965 154.47 0)
(363.981 154.47 0)
(363.976 154.459 0)
(363.923 154.424 0)
(363.772 154.342 0)
(363.412 154.175 0)
(362.679 153.874 0)
(361.554 153.421 0)
(360.286 152.946 0)
(359.386 152.583 0)
(358.96 152.442 0)
(358.852 152.412 0)
(358.808 152.428 0)
(358.781 152.445 0)
(358.76 152.458 0)
(358.734 152.477 0)
(358.702 152.499 0)
(358.681 152.522 0)
(358.689 152.538 0)
(358.73 152.549 0)
(358.783 152.561 0)
(358.846 152.574 0)
(358.858 152.577 0)
(363.258 154.241 0)
(363.318 154.239 0)
(363.406 154.25 0)
(363.467 154.223 0)
(363.447 154.216 0)
(363.394 154.25 0)
(363.318 154.282 0)
(363.294 154.276 0)
(363.308 154.23 0)
(363.381 154.169 0)
(363.515 154.138 0)
(363.609 154.147 0)
(363.615 154.168 0)
(363.58 154.213 0)
(363.517 154.284 0)
(363.49 154.303 0)
(363.535 154.286 0)
(363.579 154.278 0)
(363.624 154.29 0)
(363.663 154.33 0)
(363.697 154.376 0)
(363.729 154.392 0)
(363.743 154.391 0)
(363.756 154.379 0)
(363.751 154.354 0)
(363.709 154.343 0)
(363.646 154.354 0)
(363.596 154.383 0)
(363.573 154.424 0)
(363.592 154.464 0)
(363.664 154.499 0)
(363.77 154.499 0)
(363.862 154.474 0)
(363.913 154.461 0)
(363.941 154.446 0)
(363.944 154.438 0)
(363.93 154.443 0)
(363.926 154.454 0)
(363.935 154.474 0)
(363.946 154.484 0)
(363.94 154.492 0)
(363.919 154.501 0)
(363.889 154.503 0)
(363.865 154.508 0)
(363.858 154.511 0)
(363.857 154.514 0)
(363.864 154.506 0)
(363.85 154.481 0)
(363.767 154.424 0)
(363.548 154.316 0)
(363.079 154.101 0)
(362.225 153.739 0)
(361.006 153.281 0)
(359.842 152.81 0)
(359.056 152.554 0)
(358.745 152.459 0)
(358.706 152.421 0)
(358.687 152.428 0)
(358.666 152.429 0)
(358.656 152.426 0)
(358.648 152.428 0)
(358.64 152.435 0)
(358.634 152.445 0)
(358.634 152.45 0)
(358.669 152.436 0)
(358.728 152.437 0)
(358.81 152.45 0)
(358.82 152.457 0)
(363.545 154.443 0)
(363.596 154.272 0)
(363.718 154.062 0)
(363.755 154.084 0)
(363.731 154.176 0)
(363.665 154.297 0)
(363.584 154.326 0)
(363.554 154.256 0)
(363.539 154.18 0)
(363.566 154.105 0)
(363.627 154.115 0)
(363.65 154.182 0)
(363.634 154.221 0)
(363.62 154.232 0)
(363.605 154.222 0)
(363.588 154.193 0)
(363.623 154.165 0)
(363.649 154.153 0)
(363.67 154.162 0)
(363.704 154.211 0)
(363.752 154.282 0)
(363.771 154.325 0)
(363.778 154.353 0)
(363.777 154.363 0)
(363.761 154.346 0)
(363.712 154.334 0)
(363.659 154.345 0)
(363.619 154.382 0)
(363.592 154.441 0)
(363.594 154.513 0)
(363.624 154.567 0)
(363.666 154.588 0)
(363.719 154.571 0)
(363.79 154.521 0)
(363.852 154.453 0)
(363.886 154.391 0)
(363.901 154.351 0)
(363.913 154.33 0)
(363.93 154.318 0)
(363.941 154.326 0)
(363.931 154.366 0)
(363.897 154.419 0)
(363.846 154.465 0)
(363.809 154.497 0)
(363.794 154.514 0)
(363.781 154.518 0)
(363.768 154.504 0)
(363.725 154.471 0)
(363.602 154.403 0)
(363.312 154.277 0)
(362.733 154.026 0)
(361.743 153.632 0)
(360.483 153.154 0)
(359.404 152.749 0)
(358.762 152.56 0)
(358.556 152.489 0)
(358.544 152.43 0)
(358.567 152.402 0)
(358.561 152.402 0)
(358.567 152.4 0)
(358.576 152.388 0)
(358.575 152.363 0)
(358.569 152.341 0)
(358.573 152.318 0)
(358.604 152.313 0)
(358.661 152.327 0)
(358.743 152.347 0)
(358.75 152.36 0)
(363.789 154.231 0)
(363.875 154.285 0)
(363.967 154.368 0)
(363.968 154.421 0)
(363.943 154.597 0)
(363.924 154.684 0)
(363.896 154.638 0)
(363.862 154.562 0)
(363.84 154.495 0)
(363.876 154.404 0)
(363.924 154.343 0)
(363.92 154.337 0)
(363.896 154.329 0)
(363.864 154.298 0)
(363.813 154.247 0)
(363.779 154.221 0)
(363.786 154.221 0)
(363.787 154.237 0)
(363.803 154.284 0)
(363.867 154.338 0)
(363.927 154.385 0)
(363.949 154.4 0)
(363.954 154.423 0)
(363.929 154.437 0)
(363.884 154.439 0)
(363.829 154.449 0)
(363.796 154.457 0)
(363.784 154.468 0)
(363.777 154.489 0)
(363.77 154.527 0)
(363.766 154.562 0)
(363.766 154.572 0)
(363.771 154.562 0)
(363.792 154.516 0)
(363.832 154.438 0)
(363.886 154.357 0)
(363.936 154.294 0)
(363.959 154.268 0)
(363.983 154.262 0)
(364.002 154.261 0)
(364.005 154.277 0)
(363.991 154.317 0)
(363.956 154.37 0)
(363.909 154.425 0)
(363.868 154.476 0)
(363.832 154.505 0)
(363.786 154.503 0)
(363.699 154.466 0)
(363.526 154.383 0)
(363.156 154.23 0)
(362.449 153.943 0)
(361.336 153.507 0)
(360.08 153.031 0)
(359.13 152.69 0)
(358.625 152.561 0)
(358.47 152.51 0)
(358.448 152.464 0)
(358.485 152.434 0)
(358.504 152.431 0)
(358.519 152.426 0)
(358.533 152.409 0)
(358.535 152.373 0)
(358.527 152.34 0)
(358.525 152.314 0)
(358.561 152.304 0)
(358.616 152.31 0)
(358.702 152.328 0)
(358.712 152.355 0)
(363.891 154.175 0)
(364.203 154.356 0)
(364.195 154.449 0)
(364.217 154.572 0)
(364.309 154.639 0)
(364.322 154.695 0)
(364.265 154.651 0)
(364.227 154.562 0)
(364.193 154.559 0)
(364.214 154.563 0)
(364.233 154.628 0)
(364.194 154.656 0)
(364.131 154.633 0)
(364.041 154.583 0)
(363.921 154.5 0)
(363.869 154.441 0)
(363.88 154.427 0)
(363.932 154.392 0)
(364.013 154.347 0)
(364.111 154.339 0)
(364.181 154.336 0)
(364.203 154.344 0)
(364.208 154.376 0)
(364.177 154.431 0)
(364.12 154.498 0)
(364.071 154.55 0)
(364.055 154.563 0)
(364.051 154.567 0)
(364.043 154.572 0)
(364.021 154.581 0)
(363.98 154.592 0)
(363.93 154.6 0)
(363.883 154.584 0)
(363.844 154.545 0)
(363.841 154.492 0)
(363.889 154.443 0)
(363.97 154.4 0)
(364.037 154.365 0)
(364.079 154.362 0)
(364.118 154.37 0)
(364.143 154.379 0)
(364.15 154.403 0)
(364.136 154.431 0)
(364.097 154.449 0)
(364.051 154.474 0)
(363.994 154.48 0)
(363.919 154.467 0)
(363.785 154.435 0)
(363.538 154.371 0)
(363.064 154.209 0)
(362.226 153.873 0)
(361.016 153.403 0)
(359.805 152.947 0)
(358.993 152.671 0)
(358.619 152.574 0)
(358.498 152.539 0)
(358.464 152.517 0)
(358.488 152.496 0)
(358.53 152.495 0)
(358.548 152.49 0)
(358.569 152.476 0)
(358.581 152.448 0)
(358.58 152.414 0)
(358.58 152.388 0)
(358.606 152.381 0)
(358.654 152.385 0)
(358.738 152.395 0)
(358.762 152.432 0)
(364.595 153.59 0)
(364.413 154.53 0)
(364.18 154.54 0)
(364.342 154.689 0)
(364.504 154.807 0)
(364.541 154.8 0)
(364.489 154.633 0)
(364.382 154.558 0)
(364.358 154.588 0)
(364.378 154.705 0)
(364.409 154.909 0)
(364.329 155 0)
(364.215 154.974 0)
(364.101 154.89 0)
(363.961 154.721 0)
(363.898 154.537 0)
(363.938 154.436 0)
(364.008 154.377 0)
(364.107 154.353 0)
(364.233 154.362 0)
(364.327 154.383 0)
(364.345 154.426 0)
(364.341 154.493 0)
(364.325 154.578 0)
(364.293 154.666 0)
(364.261 154.725 0)
(364.25 154.726 0)
(364.256 154.696 0)
(364.248 154.656 0)
(364.213 154.63 0)
(364.147 154.618 0)
(364.055 154.624 0)
(363.973 154.612 0)
(363.918 154.573 0)
(363.914 154.506 0)
(363.964 154.44 0)
(364.053 154.397 0)
(364.155 154.364 0)
(364.225 154.346 0)
(364.276 154.362 0)
(364.313 154.383 0)
(364.331 154.411 0)
(364.321 154.438 0)
(364.285 154.457 0)
(364.231 154.476 0)
(364.156 154.488 0)
(364.052 154.486 0)
(363.881 154.46 0)
(363.58 154.346 0)
(363.011 154.132 0)
(362.024 153.765 0)
(360.731 153.29 0)
(359.601 152.877 0)
(358.945 152.683 0)
(358.682 152.614 0)
(358.583 152.583 0)
(358.541 152.571 0)
(358.549 152.561 0)
(358.599 152.578 0)
(358.639 152.572 0)
(358.672 152.565 0)
(358.701 152.546 0)
(358.72 152.523 0)
(358.726 152.508 0)
(358.739 152.5 0)
(358.782 152.494 0)
(358.856 152.502 0)
(358.886 152.543 0)
(366.228 156.721 0)
(363.731 154.9 0)
(364.281 154.232 0)
(364.629 154.647 0)
(364.706 154.789 0)
(364.648 154.656 0)
(364.573 154.469 0)
(364.448 154.453 0)
(364.418 154.561 0)
(364.469 154.763 0)
(364.526 155.071 0)
(364.424 155.204 0)
(364.291 155.174 0)
(364.135 155.057 0)
(363.936 154.831 0)
(363.846 154.595 0)
(363.896 154.47 0)
(363.989 154.384 0)
(364.132 154.345 0)
(364.286 154.341 0)
(364.384 154.373 0)
(364.417 154.438 0)
(364.428 154.513 0)
(364.434 154.611 0)
(364.415 154.73 0)
(364.348 154.839 0)
(364.289 154.875 0)
(364.278 154.848 0)
(364.278 154.807 0)
(364.261 154.745 0)
(364.204 154.687 0)
(364.127 154.623 0)
(364.047 154.55 0)
(363.99 154.471 0)
(363.988 154.402 0)
(364.029 154.385 0)
(364.098 154.394 0)
(364.203 154.413 0)
(364.295 154.437 0)
(364.349 154.48 0)
(364.379 154.516 0)
(364.399 154.546 0)
(364.399 154.558 0)
(364.368 154.564 0)
(364.325 154.549 0)
(364.26 154.515 0)
(364.152 154.47 0)
(363.957 154.391 0)
(363.579 154.295 0)
(362.881 154.08 0)
(361.761 153.664 0)
(360.445 153.169 0)
(359.433 152.841 0)
(358.982 152.656 0)
(358.794 152.576 0)
(358.7 152.546 0)
(358.645 152.538 0)
(358.634 152.557 0)
(358.661 152.61 0)
(358.72 152.65 0)
(358.762 152.651 0)
(358.803 152.654 0)
(358.832 152.658 0)
(358.849 152.658 0)
(358.865 152.654 0)
(358.892 152.647 0)
(358.954 152.665 0)
(358.981 152.707 0)
(377.825 149.565 0)
(365.411 151.657 0)
(365.028 153.95 0)
(364.903 155.133 0)
(364.593 154.829 0)
(364.569 154.509 0)
(364.583 154.436 0)
(364.42 154.383 0)
(364.42 154.45 0)
(364.525 154.653 0)
(364.639 155.039 0)
(364.546 155.228 0)
(364.4 155.199 0)
(364.225 155.059 0)
(363.964 154.796 0)
(363.848 154.521 0)
(363.905 154.379 0)
(364.013 154.31 0)
(364.162 154.303 0)
(364.314 154.322 0)
(364.404 154.358 0)
(364.453 154.425 0)
(364.478 154.505 0)
(364.499 154.625 0)
(364.49 154.799 0)
(364.413 154.961 0)
(364.301 155.048 0)
(364.249 155.031 0)
(364.232 154.967 0)
(364.239 154.817 0)
(364.214 154.67 0)
(364.151 154.57 0)
(364.087 154.494 0)
(364.054 154.442 0)
(364.046 154.402 0)
(364.072 154.404 0)
(364.125 154.435 0)
(364.205 154.499 0)
(364.292 154.558 0)
(364.355 154.594 0)
(364.388 154.624 0)
(364.408 154.636 0)
(364.411 154.633 0)
(364.395 154.617 0)
(364.359 154.58 0)
(364.292 154.527 0)
(364.171 154.46 0)
(363.949 154.378 0)
(363.51 154.231 0)
(362.692 153.961 0)
(361.463 153.488 0)
(360.186 153.013 0)
(359.357 152.725 0)
(359.03 152.627 0)
(358.884 152.565 0)
(358.788 152.534 0)
(358.727 152.518 0)
(358.69 152.55 0)
(358.686 152.636 0)
(358.746 152.711 0)
(358.807 152.738 0)
(358.851 152.759 0)
(358.889 152.781 0)
(358.919 152.791 0)
(358.948 152.783 0)
(358.972 152.778 0)
(359.016 152.782 0)
(359.046 152.812 0)
(492.712 72.9184 0)
(394.22 138.204 0)
(365.159 157.153 0)
(364.048 156.002 0)
(364.016 154.239 0)
(364.663 154.487 0)
(364.59 154.628 0)
(364.251 154.396 0)
(364.259 154.26 0)
(364.439 154.44 0)
(364.652 154.865 0)
(364.591 155.239 0)
(364.408 155.313 0)
(364.204 155.174 0)
(363.956 154.778 0)
(363.881 154.402 0)
(363.959 154.213 0)
(364.097 154.155 0)
(364.246 154.218 0)
(364.337 154.313 0)
(364.384 154.392 0)
(364.437 154.463 0)
(364.485 154.536 0)
(364.545 154.658 0)
(364.581 154.853 0)
(364.532 155.062 0)
(364.39 155.186 0)
(364.261 155.17 0)
(364.205 155.099 0)
(364.167 154.926 0)
(364.151 154.706 0)
(364.138 154.546 0)
(364.104 154.455 0)
(364.096 154.411 0)
(364.097 154.395 0)
(364.128 154.429 0)
(364.182 154.497 0)
(364.243 154.589 0)
(364.285 154.677 0)
(364.319 154.731 0)
(364.338 154.766 0)
(364.344 154.766 0)
(364.348 154.724 0)
(364.361 154.652 0)
(364.356 154.568 0)
(364.29 154.494 0)
(364.148 154.419 0)
(363.891 154.308 0)
(363.365 154.123 0)
(362.426 153.805 0)
(361.122 153.298 0)
(359.906 152.902 0)
(359.306 152.673 0)
(359.082 152.59 0)
(358.958 152.544 0)
(358.863 152.528 0)
(358.797 152.522 0)
(358.75 152.555 0)
(358.744 152.647 0)
(358.792 152.75 0)
(358.84 152.791 0)
(358.889 152.825 0)
(358.931 152.854 0)
(358.968 152.858 0)
(359.003 152.844 0)
(359.035 152.846 0)
(359.074 152.853 0)
(359.112 152.881 0)
(574.399 5.3744 0)
(500.042 72.5716 0)
(378.936 147.13 0)
(366.815 152.945 0)
(363.95 153.42 0)
(365.173 155.154 0)
(364.375 155.1 0)
(363.95 154.495 0)
(364.073 154.09 0)
(364.348 154.279 0)
(364.507 154.687 0)
(364.43 155.259 0)
(364.214 155.439 0)
(364.01 155.288 0)
(363.841 154.823 0)
(363.888 154.334 0)
(364.071 154.045 0)
(364.251 154.059 0)
(364.348 154.19 0)
(364.365 154.3 0)
(364.364 154.4 0)
(364.398 154.469 0)
(364.459 154.548 0)
(364.556 154.677 0)
(364.63 154.891 0)
(364.601 155.117 0)
(364.457 155.231 0)
(364.289 155.196 0)
(364.19 155.117 0)
(364.1 154.946 0)
(364.06 154.72 0)
(364.071 154.562 0)
(364.097 154.459 0)
(364.119 154.423 0)
(364.144 154.43 0)
(364.196 154.47 0)
(364.263 154.55 0)
(364.318 154.659 0)
(364.333 154.763 0)
(364.331 154.834 0)
(364.317 154.85 0)
(364.297 154.84 0)
(364.281 154.803 0)
(364.284 154.725 0)
(364.281 154.626 0)
(364.229 154.523 0)
(364.097 154.423 0)
(363.792 154.296 0)
(363.17 154.077 0)
(362.087 153.702 0)
(360.735 153.177 0)
(359.655 152.819 0)
(359.26 152.654 0)
(359.113 152.593 0)
(359.002 152.565 0)
(358.918 152.554 0)
(358.849 152.554 0)
(358.797 152.597 0)
(358.797 152.692 0)
(358.84 152.766 0)
(358.884 152.787 0)
(358.938 152.821 0)
(358.987 152.842 0)
(359.034 152.85 0)
(359.079 152.847 0)
(359.123 152.855 0)
(359.187 152.855 0)
(359.217 152.867 0)
(579.975 0.0290006 0)
(574.624 5.41809 0)
(499.638 68.7668 0)
(390.878 139.285 0)
(363.768 155.861 0)
(365.574 156.608 0)
(363.937 155.434 0)
(363.923 154.63 0)
(364.199 154.238 0)
(364.323 154.207 0)
(364.227 154.461 0)
(364.087 155.089 0)
(363.926 155.4 0)
(363.813 155.267 0)
(363.756 154.841 0)
(363.896 154.268 0)
(364.199 154.035 0)
(364.377 154.129 0)
(364.411 154.254 0)
(364.42 154.339 0)
(364.385 154.426 0)
(364.374 154.499 0)
(364.432 154.569 0)
(364.537 154.689 0)
(364.617 154.905 0)
(364.602 155.128 0)
(364.477 155.226 0)
(364.298 155.205 0)
(364.18 155.128 0)
(364.068 154.931 0)
(364.01 154.692 0)
(364.017 154.528 0)
(364.075 154.474 0)
(364.131 154.474 0)
(364.183 154.491 0)
(364.249 154.533 0)
(364.318 154.603 0)
(364.363 154.684 0)
(364.368 154.753 0)
(364.338 154.804 0)
(364.288 154.824 0)
(364.257 154.817 0)
(364.234 154.782 0)
(364.225 154.718 0)
(364.21 154.65 0)
(364.149 154.577 0)
(363.987 154.474 0)
(363.615 154.333 0)
(362.878 154.066 0)
(361.666 153.628 0)
(360.303 153.129 0)
(359.433 152.802 0)
(359.196 152.704 0)
(359.092 152.674 0)
(358.998 152.634 0)
(358.927 152.611 0)
(358.868 152.597 0)
(358.825 152.615 0)
(358.832 152.675 0)
(358.871 152.731 0)
(358.916 152.756 0)
(358.971 152.792 0)
(359.03 152.815 0)
(359.093 152.823 0)
(359.151 152.82 0)
(359.205 152.824 0)
(359.262 152.824 0)
(359.277 152.836 0)
(580 1.14609e-05 0)
(579.975 0.0282401 0)
(575.375 4.67711 0)
(498.661 67.4417 0)
(394.566 138.582 0)
(369.356 155.425 0)
(363.521 155.269 0)
(363.876 155.222 0)
(364.48 154.527 0)
(364.226 153.992 0)
(363.885 153.946 0)
(363.917 154.58 0)
(363.899 155.077 0)
(363.787 155.039 0)
(363.769 154.744 0)
(363.983 154.308 0)
(364.288 154.217 0)
(364.439 154.322 0)
(364.488 154.399 0)
(364.475 154.49 0)
(364.408 154.532 0)
(364.391 154.543 0)
(364.426 154.582 0)
(364.487 154.695 0)
(364.549 154.905 0)
(364.542 155.144 0)
(364.452 155.198 0)
(364.322 155.143 0)
(364.207 155.04 0)
(364.096 154.835 0)
(364.027 154.594 0)
(364.019 154.454 0)
(364.069 154.459 0)
(364.122 154.494 0)
(364.186 154.541 0)
(364.256 154.586 0)
(364.314 154.64 0)
(364.336 154.69 0)
(364.327 154.726 0)
(364.298 154.736 0)
(364.248 154.739 0)
(364.222 154.727 0)
(364.208 154.706 0)
(364.194 154.685 0)
(364.164 154.667 0)
(364.074 154.635 0)
(363.857 154.567 0)
(363.392 154.407 0)
(362.51 154.086 0)
(361.176 153.599 0)
(359.874 153.135 0)
(359.276 152.864 0)
(359.143 152.808 0)
(359.067 152.76 0)
(358.978 152.7 0)
(358.908 152.67 0)
(358.849 152.643 0)
(358.81 152.634 0)
(358.821 152.673 0)
(358.862 152.715 0)
(358.908 152.744 0)
(358.97 152.777 0)
(359.042 152.795 0)
(359.115 152.797 0)
(359.184 152.786 0)
(359.25 152.78 0)
(359.313 152.777 0)
(359.331 152.804 0)
(580 4.28549e-09 0)
(580 1.053e-05 0)
(579.981 0.0224261 0)
(575.508 4.19558 0)
(509.013 61.7752 0)
(392.614 137.364 0)
(364.412 156.779 0)
(364.452 156.905 0)
(364.434 155.34 0)
(364.038 153.208 0)
(364.003 153.423 0)
(364.233 154.132 0)
(364.064 154.73 0)
(363.906 154.67 0)
(363.95 154.507 0)
(364.186 154.402 0)
(364.4 154.468 0)
(364.467 154.517 0)
(364.503 154.561 0)
(364.475 154.603 0)
(364.446 154.588 0)
(364.425 154.548 0)
(364.429 154.556 0)
(364.417 154.668 0)
(364.44 154.884 0)
(364.422 155.109 0)
(364.386 155.133 0)
(364.298 155.052 0)
(364.223 154.877 0)
(364.161 154.634 0)
(364.132 154.411 0)
(364.098 154.323 0)
(364.103 154.377 0)
(364.137 154.467 0)
(364.17 154.545 0)
(364.225 154.591 0)
(364.263 154.612 0)
(364.268 154.628 0)
(364.252 154.643 0)
(364.217 154.675 0)
(364.185 154.692 0)
(364.179 154.685 0)
(364.179 154.687 0)
(364.177 154.698 0)
(364.135 154.708 0)
(364.008 154.689 0)
(363.73 154.614 0)
(363.135 154.434 0)
(362.077 154.064 0)
(360.648 153.558 0)
(359.526 153.119 0)
(359.169 152.926 0)
(359.08 152.873 0)
(359.019 152.813 0)
(358.945 152.752 0)
(358.86 152.727 0)
(358.802 152.705 0)
(358.762 152.69 0)
(358.766 152.709 0)
(358.816 152.744 0)
(358.866 152.761 0)
(358.939 152.784 0)
(359.022 152.797 0)
(359.098 152.799 0)
(359.177 152.781 0)
(359.254 152.769 0)
(359.326 152.767 0)
(359.353 152.806 0)
(580 3.14862e-13 0)
(580 3.48197e-09 0)
(580 8.01254e-06 0)
(579.982 0.0196789 0)
(576.693 3.31712 0)
(504.228 60.656 0)
(401.829 136.676 0)
(369.978 158.427 0)
(365.305 155.411 0)
(363.979 153.269 0)
(364.846 153.645 0)
(364.744 154.715 0)
(364.011 154.785 0)
(363.825 154.69 0)
(364.021 154.67 0)
(364.308 154.605 0)
(364.456 154.622 0)
(364.504 154.669 0)
(364.497 154.674 0)
(364.474 154.649 0)
(364.446 154.586 0)
(364.429 154.523 0)
(364.408 154.503 0)
(364.352 154.59 0)
(364.293 154.822 0)
(364.273 155.017 0)
(364.258 155.081 0)
(364.193 154.995 0)
(364.166 154.784 0)
(364.199 154.505 0)
(364.216 154.295 0)
(364.194 154.216 0)
(364.197 154.283 0)
(364.201 154.406 0)
(364.176 154.512 0)
(364.173 154.558 0)
(364.185 154.568 0)
(364.171 154.581 0)
(364.152 154.603 0)
(364.137 154.619 0)
(364.133 154.627 0)
(364.145 154.634 0)
(364.169 154.65 0)
(364.18 154.679 0)
(364.12 154.708 0)
(363.951 154.691 0)
(363.586 154.596 0)
(362.853 154.367 0)
(361.614 153.942 0)
(360.149 153.465 0)
(359.284 153.05 0)
(359.073 152.923 0)
(359.018 152.87 0)
(358.977 152.799 0)
(358.905 152.743 0)
(358.81 152.73 0)
(358.743 152.725 0)
(358.707 152.714 0)
(358.707 152.729 0)
(358.756 152.778 0)
(358.82 152.797 0)
(358.896 152.823 0)
(358.986 152.84 0)
(359.066 152.848 0)
(359.147 152.831 0)
(359.227 152.817 0)
(359.31 152.806 0)
(359.355 152.835 0)
(580 -3.22252e-13 0)
(580 4.92061e-14 0)
(580 2.78666e-09 0)
(580 6.98447e-06 0)
(579.989 0.012248 0)
(576.286 3.47156 0)
(524.346 53.7816 0)
(394.85 140.48 0)
(365.665 154.651 0)
(363.549 152.865 0)
(365.07 155.005 0)
(364.18 155.608 0)
(363.116 154.646 0)
(363.674 154.579 0)
(364.216 154.732 0)
(364.439 154.714 0)
(364.484 154.66 0)
(364.439 154.626 0)
(364.388 154.624 0)
(364.356 154.607 0)
(364.34 154.541 0)
(364.354 154.481 0)
(364.342 154.457 0)
(364.284 154.512 0)
(364.173 154.691 0)
(364.103 154.874 0)
(364.081 154.988 0)
(364.056 154.96 0)
(364.083 154.785 0)
(364.195 154.533 0)
(364.262 154.343 0)
(364.271 154.271 0)
(364.284 154.297 0)
(364.276 154.37 0)
(364.222 154.455 0)
(364.154 154.507 0)
(364.127 154.511 0)
(364.1 154.507 0)
(364.08 154.511 0)
(364.059 154.535 0)
(364.062 154.573 0)
(364.086 154.613 0)
(364.13 154.64 0)
(364.164 154.646 0)
(364.105 154.648 0)
(363.89 154.617 0)
(363.434 154.493 0)
(362.542 154.206 0)
(361.143 153.761 0)
(359.716 153.321 0)
(359.102 152.994 0)
(358.991 152.913 0)
(358.96 152.873 0)
(358.929 152.806 0)
(358.863 152.742 0)
(358.767 152.72 0)
(358.684 152.714 0)
(358.649 152.708 0)
(358.648 152.73 0)
(358.694 152.797 0)
(358.772 152.834 0)
(358.852 152.862 0)
(358.946 152.885 0)
(359.034 152.895 0)
(359.119 152.883 0)
(359.19 152.879 0)
(359.278 152.86 0)
(359.339 152.881 0)
(580 -1.07336e-13 0)
(580 -5.50794e-13 0)
(580 -1.01247e-12 0)
(580 1.95776e-09 0)
(580 4.9656e-06 0)
(579.988 0.0122386 0)
(577.754 2.57926 0)
(520.795 49.4965 0)
(414.724 130.434 0)
(365.551 151.743 0)
(364.455 158.315 0)
(362.096 155.347 0)
(363.01 153.73 0)
(364.47 154.257 0)
(364.774 154.809 0)
(364.615 154.907 0)
(364.412 154.836 0)
(364.226 154.672 0)
(364.182 154.587 0)
(364.185 154.533 0)
(364.219 154.48 0)
(364.284 154.418 0)
(364.288 154.397 0)
(364.246 154.422 0)
(364.113 154.548 0)
(363.951 154.726 0)
(363.899 154.852 0)
(363.895 154.908 0)
(363.981 154.805 0)
(364.16 154.591 0)
(364.284 154.422 0)
(364.322 154.345 0)
(364.339 154.329 0)
(364.306 154.365 0)
(364.235 154.398 0)
(364.169 154.379 0)
(364.112 154.365 0)
(364.061 154.351 0)
(364.03 154.38 0)
(364.003 154.452 0)
(364.01 154.54 0)
(364.045 154.601 0)
(364.095 154.628 0)
(364.131 154.606 0)
(364.072 154.557 0)
(363.822 154.486 0)
(363.257 154.314 0)
(362.196 153.98 0)
(360.689 153.542 0)
(359.367 153.184 0)
(358.967 152.97 0)
(358.922 152.916 0)
(358.909 152.882 0)
(358.885 152.823 0)
(358.822 152.755 0)
(358.727 152.726 0)
(358.636 152.724 0)
(358.598 152.726 0)
(358.602 152.749 0)
(358.648 152.815 0)
(358.734 152.858 0)
(358.822 152.887 0)
(358.919 152.915 0)
(359.014 152.928 0)
(359.104 152.919 0)
(359.171 152.918 0)
(359.256 152.896 0)
(359.321 152.933 0)
(580 -1.08545e-12 0)
(580 -8.74726e-13 0)
(580 -9.38848e-13 0)
(580 -4.42012e-13 0)
(580 1.46871e-09 0)
(580 4.45375e-06 0)
(579.994 0.00634305 0)
(578.033 1.99899 0)
(531.153 43.4367 0)
(417.506 125.476 0)
(370.492 155.081 0)
(363.293 153.074 0)
(364.583 153.633 0)
(365.863 155.35 0)
(364.92 155.492 0)
(364.248 155.286 0)
(364.112 155.034 0)
(364.063 154.761 0)
(364.082 154.552 0)
(364.129 154.494 0)
(364.187 154.465 0)
(364.259 154.404 0)
(364.26 154.367 0)
(364.22 154.361 0)
(364.108 154.433 0)
(363.907 154.598 0)
(363.797 154.753 0)
(363.789 154.856 0)
(363.887 154.85 0)
(364.09 154.74 0)
(364.254 154.629 0)
(364.304 154.565 0)
(364.306 154.51 0)
(364.261 154.455 0)
(364.179 154.349 0)
(364.15 154.269 0)
(364.102 154.207 0)
(364.066 154.207 0)
(364.045 154.264 0)
(364.019 154.392 0)
(364.019 154.536 0)