/*--------------------------------*- C++ -*----------------------------------*\
| =========                 |                                                 |
| \\      /  F ield         | OpenFOAM: The Open Source CFD Toolbox           |
|  \\    /   O peration     | Version:  2306                                  |
|   \\  /    A nd           | Website:  www.openfoam.com                      |
|    \\/     M anipulation  |                                                 |
\*---------------------------------------------------------------------------*/
FoamFile
{
    version     2.0;
    format      ascii;
    arch        "LSB;label=32;scalar=64";
    class       volVectorField;
    location    "8e-05";
    object      U;
}
// * * * * * * * * * * * * * * * * * * * * * * * * * * * * * * * * * * * * * //

dimensions      [0 1 -1 0 0 0 0];

internalField   nonuniform List<vector> 
9044
(
(580 -2.06413e-12 0)
(580 -2.30967e-12 0)
(580 -2.06577e-12 0)
(580 -2.04534e-12 0)
(580 -8.55626e-13 0)
(580 -8.75212e-13 0)
(580 -4.63522e-13 0)
(580 -3.91614e-13 0)
(580 2.91815e-13 0)
(580 3.75396e-13 0)
(580 6.16414e-13 0)
(580 5.81526e-13 0)
(580 9.02494e-13 0)
(580 9.50551e-13 0)
(580 1.93789e-12 0)
(580 1.8493e-12 0)
(580 2.39229e-12 0)
(580 2.36604e-12 0)
(580 2.68869e-12 0)
(580 2.69282e-12 0)
(580 1.47197e-12 0)
(580 1.52776e-12 0)
(580 1.99422e-13 0)
(580 1.35361e-13 0)
(580 -8.50306e-13 0)
(580 -8.19538e-13 0)
(580 -4.12826e-13 0)
(580 -3.87244e-13 0)
(580 2.00012e-12 0)
(580 1.97558e-12 0)
(580 2.47675e-12 0)
(580 2.46542e-12 0)
(580 -3.70852e-12 0)
(580 -2.79399e-12 0)
(580 -2.22232e-12 0)
(580 -2.1762e-12 0)
(580 -2.08499e-12 0)
(580 -1.6902e-12 0)
(580 -1.60089e-12 0)
(580 -1.49128e-12 0)
(580 -1.03962e-12 0)
(580 1.24181e-13 0)
(580 7.16417e-13 0)
(580 9.86837e-13 0)
(580 -1.70971e-12 0)
(580 -1.57785e-12 0)
(580 -1.57641e-12 0)
(580 -1.38013e-12 0)
(580 -1.08783e-12 0)
(580 -1.05639e-12 0)
(580 -8.87006e-13 0)
(580 -4.78942e-13 0)
(580 1.76693e-13 0)
(580 -5.6922e-13 0)
(580 -9.33274e-13 0)
(580 -1.10753e-12 0)
(580 -1.29848e-12 0)
(580 -1.19952e-12 0)
(580 -8.12772e-13 0)
(580 -5.0903e-13 0)
(580 2.04606e-13 0)
(580 8.5832e-13 0)
(580 9.84385e-13 0)
(580 1.06493e-12 0)
(580 1.01651e-12 0)
(580 1.08387e-12 0)
(580 1.17012e-12 0)
(580 1.05986e-12 0)
(580 5.2899e-13 0)
(580 -2.18374e-13 0)
(580 -6.11896e-13 0)
(580 -1.3348e-12 0)
(580 -1.79027e-12 0)
(580 -2.00116e-12 0)
(580 -1.70386e-12 0)
(580 -1.36065e-12 0)
(580 -1.65083e-12 0)
(580 -2.18332e-12 0)
(580 -2.34168e-12 0)
(580 -2.48801e-12 0)
(580 -2.67785e-12 0)
(580 -3.02783e-12 0)
(580 -3.20314e-12 0)
(580 -3.58657e-12 0)
(580 -3.69236e-12 0)
(580 -3.75176e-12 0)
(580 -3.62261e-12 0)
(580 -2.84749e-12 0)
(580 -1.8941e-12 0)
(580 -2.42588e-12 0)
(580 -2.62132e-12 0)
(580 -3.06439e-12 0)
(580 -3.05023e-12 0)
(580 -3.20159e-12 0)
(580 -3.17452e-12 0)
(580 -3.57839e-12 0)
(580 -4.20542e-12 0)
(580 -4.47463e-12 0)
(580 -4.45458e-12 0)
(580 -4.79998e-12 0)
(580 -3.93796e-12 0)
(580 -2.98035e-12 0)
(580 -2.17142e-12 0)
(580 -1.94644e-12 0)
(580 -2.02465e-12 0)
(580 -1.86034e-12 0)
(580 -1.60812e-12 0)
(580 -1.30525e-12 0)
(580 -9.61056e-13 0)
(580 -4.84163e-13 0)
(580 -2.66853e-14 0)
(580 2.93296e-13 0)
(580 1.01961e-12 0)
(580 1.21248e-12 0)
(580 -2.97242e-12 0)
(580 -2.68523e-12 0)
(580 -2.99965e-12 0)
(580 -2.88792e-12 0)
(580 -2.87346e-12 0)
(580 -2.91431e-12 0)
(580 -2.81737e-12 0)
(580 -2.5613e-12 0)
(580 -2.21465e-12 0)
(580 -2.2063e-12 0)
(580 -1.97347e-12 0)
(580 -1.97342e-12 0)
(580 -1.65735e-12 0)
(580 -1.45247e-12 0)
(580 -1.53289e-12 0)
(580 -1.75855e-12 0)
(580 -2.13784e-12 0)
(580 -1.30544e-12 0)
(580 -7.82092e-13 0)
(580 -4.9229e-13 0)
(580 -1.16419e-13 0)
(580 3.45278e-13 0)
(580 6.30195e-13 0)
(580 7.90124e-13 0)
(580 6.67518e-13 0)
(580 3.62289e-13 0)
(580 -4.67379e-16 0)
(580 -1.84249e-13 0)
(580 -3.01302e-13 0)
(580 -8.81492e-13 0)
(580 -1.06967e-12 0)
(580 -8.22155e-13 0)
(580 -5.15958e-13 0)
(580 -5.41522e-13 0)
(580 -7.45307e-13 0)
(580 -1.3605e-12 0)
(580 -1.64881e-12 0)
(580 -2.10646e-12 0)
(580 -2.73666e-12 0)
(580 -3.09546e-12 0)
(580 -3.44073e-12 0)
(580 -3.84855e-12 0)
(580 -4.0521e-12 0)
(580 -4.46499e-12 0)
(580 -4.64925e-12 0)
(580 -4.36438e-12 0)
(580 -3.43917e-12 0)
(580 -3.06221e-12 0)
(580 -3.07613e-12 0)
(580 -3.34857e-12 0)
(580 -3.69745e-12 0)
(580 -3.59855e-12 0)
(580 -3.71633e-12 0)
(580 -3.82685e-12 0)
(580 -3.62488e-12 0)
(580 -3.43963e-12 0)
(580 -3.3419e-12 0)
(580 -2.89051e-12 0)
(580 -2.67791e-12 0)
(580 -2.62803e-12 0)
(580 -2.4463e-12 0)
(580 -2.0761e-12 0)
(580 -1.58444e-12 0)
(580 -6.56095e-13 0)
(580 4.2834e-13 0)
(580 7.19116e-13 0)
(580 5.4526e-13 0)
(580 5.19733e-13 0)
(580 1.02758e-12 0)
(580 1.28786e-12 0)
(580 -3.36767e-12 0)
(580 -3.5442e-12 0)
(580 -3.63698e-12 0)
(580 -3.85256e-12 0)
(580 -4.20608e-12 0)
(580 -4.28761e-12 0)
(580 -4.34891e-12 0)
(580 -3.95543e-12 0)
(580 -3.84524e-12 0)
(580 -4.22573e-12 0)
(580 -3.59022e-12 0)
(580 -3.1752e-12 0)
(580 -2.67442e-12 0)
(580 -2.226e-12 0)
(580 -2.363e-12 0)
(580 -2.23506e-12 0)
(580 -2.0957e-12 0)
(580 -1.86838e-12 0)
(580 -1.43966e-12 0)
(580 -1.00227e-12 0)
(580 -2.11987e-13 0)
(580 1.16099e-14 0)
(580 1.49513e-13 0)
(580 1.75389e-13 0)
(580 9.60618e-14 0)
(580 -1.2005e-13 0)
(580 -4.41643e-13 0)
(580 -8.05627e-13 0)
(580 -7.40411e-13 0)
(580 -7.90443e-13 0)
(580 -5.19673e-13 0)
(580 3.65688e-13 0)
(580 5.62623e-13 0)
(580 2.96487e-13 0)
(580 -3.09408e-14 0)
(580 -3.68947e-13 0)
(580 -1.32278e-12 0)
(580 -2.02044e-12 0)
(580 -2.28435e-12 0)
(580 -2.61356e-12 0)
(580 -3.21264e-12 0)
(580 -4.07696e-12 0)
(580 -4.4567e-12 0)
(580 -4.91536e-12 0)
(580 -5.36151e-12 0)
(580 -5.5368e-12 0)
(580 -5.5196e-12 0)
(580 -5.33432e-12 0)
(580 -5.18101e-12 0)
(580 -4.83516e-12 0)
(580 -4.6375e-12 0)
(580 -4.0418e-12 0)
(580 -3.99936e-12 0)
(580 -4.06439e-12 0)
(580 -3.81484e-12 0)
(580 -3.34721e-12 0)
(580 -3.66758e-12 0)
(580 -3.99738e-12 0)
(580 -3.89059e-12 0)
(580 -3.14292e-12 0)
(580 -2.36655e-12 0)
(580 -2.24023e-12 0)
(580 -1.45926e-12 0)
(580 -9.4523e-13 0)
(580 -8.01089e-13 0)
(580 -6.21503e-13 0)
(580 -8.91268e-14 0)
(580 1.7643e-13 0)
(580 7.83234e-14 0)
(580 -3.88764e-13 0)
(580 -4.22489e-12 0)
(580 -4.45577e-12 0)
(580 -4.73015e-12 0)
(580 -4.7165e-12 0)
(580 -4.97801e-12 0)
(580 -5.03095e-12 0)
(580 -5.08404e-12 0)
(580 -5.32617e-12 0)
(580 -5.60166e-12 0)
(580 -5.2738e-12 0)
(580 -4.35835e-12 0)
(580 -4.01637e-12 0)
(580 -4.23475e-12 0)
(580 -4.47142e-12 0)
(580 -3.89926e-12 0)
(580 -3.40112e-12 0)
(580 -2.81435e-12 0)
(580 -2.82526e-12 0)
(580 -2.82618e-12 0)
(580 -2.71629e-12 0)
(580 -2.41233e-12 0)
(580 -2.10213e-12 0)
(580 -1.56161e-12 0)
(580 -1.2938e-12 0)
(580 -1.40984e-12 0)
(580 -1.38428e-12 0)
(580 -1.39965e-12 0)
(580 -1.60529e-12 0)
(580 -1.41727e-12 0)
(580 -2.03e-13 0)
(580 -1.58307e-14 0)
(580 -2.02505e-13 0)
(580 -3.8604e-13 0)
(580 -3.96554e-13 0)
(580 -3.27135e-13 0)
(580 -3.05793e-13 0)
(580 -4.32839e-13 0)
(580 -1.02757e-12 0)
(580 -1.68143e-12 0)
(580 -2.45577e-12 0)
(580 -2.99954e-12 0)
(580 -3.53003e-12 0)
(580 -4.13445e-12 0)
(580 -4.77128e-12 0)
(580 -5.08721e-12 0)
(580 -5.05076e-12 0)
(580 -5.03684e-12 0)
(580 -5.37147e-12 0)
(580 -5.31952e-12 0)
(580 -5.24119e-12 0)
(580 -4.85462e-12 0)
(580 -4.4747e-12 0)
(580 -4.05789e-12 0)
(580 -3.82531e-12 0)
(580 -3.32182e-12 0)
(580 -3.06828e-12 0)
(580 -3.29357e-12 0)
(580 -3.54597e-12 0)
(580 -2.45112e-12 0)
(580 -2.88247e-12 0)
(580 -2.79204e-12 0)
(580 -2.18283e-12 0)
(580 -1.95441e-12 0)
(580 -2.04556e-12 0)
(580 -2.02551e-12 0)
(580 -2.18812e-12 0)
(580 -2.76436e-12 0)
(580 -2.31988e-12 0)
(580 -1.78124e-12 0)
(580 -1.46039e-12 0)
(580 -4.64451e-12 0)
(580 -4.99064e-12 0)
(580 -5.02211e-12 0)
(580 -5.39547e-12 0)
(580 -5.5379e-12 0)
(580 -5.87396e-12 0)
(580 -6.38729e-12 0)
(580 -6.46052e-12 0)
(580 -6.36385e-12 0)
(580 -5.93078e-12 0)
(580 -6.02086e-12 0)
(580 -6.14811e-12 0)
(580 -5.89822e-12 0)
(580 -5.56264e-12 0)
(580 -5.37568e-12 0)
(580 -5.00233e-12 0)
(580 -4.60768e-12 0)
(580 -4.28145e-12 0)
(580 -4.18758e-12 0)
(580 -3.9483e-12 0)
(580 -3.49737e-12 0)
(580 -3.17612e-12 0)
(580 -2.76357e-12 0)
(580 -2.72481e-12 0)
(580 -2.94812e-12 0)
(580 -2.88653e-12 0)
(580 -2.81457e-12 0)
(580 -2.99827e-12 0)
(580 -2.78812e-12 0)
(580 -2.27691e-12 0)
(580 -1.89696e-12 0)
(580 -1.59059e-12 0)
(580 -1.26498e-12 0)
(580 -1.06644e-12 0)
(580 -1.22729e-12 0)
(580 -1.52567e-12 0)
(580 -1.41804e-12 0)
(580 -1.19219e-12 0)
(580 -1.25636e-12 0)
(580 -1.65225e-12 0)
(580 -2.21873e-12 0)
(580 -2.81885e-12 0)
(580 -3.31997e-12 0)
(580 -4.08431e-12 0)
(580 -4.17936e-12 0)
(580 -4.15146e-12 0)
(580 -3.98737e-12 0)
(580 -4.12665e-12 0)
(580 -3.76014e-12 0)
(580 -3.73587e-12 0)
(580 -3.61503e-12 0)
(580 -3.23856e-12 0)
(580 -2.88012e-12 0)
(580 -2.73861e-12 0)
(580 -1.97215e-12 0)
(580 -1.85283e-12 0)
(580 -1.66074e-12 0)
(580 -8.40627e-13 0)
(580 -4.76928e-13 0)
(580 -1.10872e-12 0)
(580 -1.5736e-12 0)
(580 -1.90736e-12 0)
(580 -2.26451e-12 0)
(580 -2.34804e-12 0)
(580 -2.49516e-12 0)
(580 -2.4644e-12 0)
(580 -2.16621e-12 0)
(580 -1.83051e-12 0)
(580 -1.75413e-12 0)
(580 -1.99747e-12 0)
(580 -4.80518e-12 0)
(580 -5.35783e-12 0)
(580 -5.64502e-12 0)
(580 -5.9232e-12 0)
(580 -6.57908e-12 0)
(580 -6.72325e-12 0)
(580 -6.53342e-12 0)
(580 -6.52004e-12 0)
(580 -6.65567e-12 0)
(580 -6.68664e-12 0)
(580 -6.92359e-12 0)
(580 -6.92822e-12 0)
(580 -6.81356e-12 0)
(580 -6.35511e-12 0)
(580 -5.91495e-12 0)
(580 -5.84845e-12 0)
(580 -5.52446e-12 0)
(580 -4.93962e-12 0)
(580 -4.52182e-12 0)
(580 -4.44976e-12 0)
(580 -4.47737e-12 0)
(580 -4.34935e-12 0)
(580 -4.39418e-12 0)
(580 -4.14186e-12 0)
(580 -3.90842e-12 0)
(580 -3.74589e-12 0)
(580 -3.21333e-12 0)
(580 -2.76358e-12 0)
(580 -2.32033e-12 0)
(580 -2.02976e-12 0)
(580 -1.87796e-12 0)
(580 -1.36254e-12 0)
(580 -1.3752e-12 0)
(580 -1.58865e-12 0)
(580 -2.01719e-12 0)
(580 -2.41185e-12 0)
(580 -2.43597e-12 0)
(580 -2.2807e-12 0)
(580 -2.18459e-12 0)
(580 -2.46631e-12 0)
(580 -2.81728e-12 0)
(580 -3.01595e-12 0)
(580 -3.18437e-12 0)
(580 -3.57816e-12 0)
(580 -3.66604e-12 0)
(580 -3.43809e-12 0)
(580 -2.75121e-12 0)
(580 -2.85654e-12 0)
(580 -2.50282e-12 0)
(580 -2.25327e-12 0)
(580 -1.92739e-12 0)
(580 -1.98549e-12 0)
(580 -2.13069e-12 0)
(580 -1.63185e-12 0)
(580 -9.0812e-13 0)
(580 -5.74383e-13 0)
(580 -8.87217e-13 0)
(580 -1.09835e-12 0)
(580 -1.13313e-12 0)
(580 -1.26771e-12 0)
(580 -1.40469e-12 0)
(580 -1.69081e-12 0)
(580 -1.98028e-12 0)
(580 -2.22501e-12 0)
(580 -2.39887e-12 0)
(580 -2.8229e-12 0)
(580 -3.08949e-12 0)
(580 -3.13484e-12 0)
(580 -2.99292e-12 0)
(580 -3.4596e-12 0)
(580 -6.42398e-12 0)
(580 -6.61119e-12 0)
(580 -6.73678e-12 0)
(580 -6.84426e-12 0)
(580 -6.72316e-12 0)
(580 -6.6986e-12 0)
(580 -6.89584e-12 0)
(580 -7.00093e-12 0)
(580 -7.3761e-12 0)
(580 -7.45838e-12 0)
(580 -7.31653e-12 0)
(580 -7.15218e-12 0)
(580 -6.7894e-12 0)
(580 -6.66044e-12 0)
(580 -6.63054e-12 0)
(580 -6.86824e-12 0)
(580 -6.76226e-12 0)
(580 -6.30563e-12 0)
(580 -5.92541e-12 0)
(580 -6.05396e-12 0)
(580 -6.06258e-12 0)
(580 -5.9192e-12 0)
(580 -5.59911e-12 0)
(580 -5.27748e-12 0)
(580 -4.46506e-12 0)
(580 -3.32147e-12 0)
(580 -2.92226e-12 0)
(580 -2.35307e-12 0)
(580 -2.75643e-12 0)
(580 -3.05653e-12 0)
(580 -3.36316e-12 0)
(580 -3.25373e-12 0)
(580 -3.0461e-12 0)
(580 -3.35681e-12 0)
(580 -3.4853e-12 0)
(580 -3.69934e-12 0)
(580 -3.91895e-12 0)
(580 -3.85373e-12 0)
(580 -3.43556e-12 0)
(580 -3.45084e-12 0)
(580 -3.56841e-12 0)
(580 -3.83692e-12 0)
(580 -3.80493e-12 0)
(580 -3.64512e-12 0)
(580 -3.24951e-12 0)
(580 -2.89829e-12 0)
(580 -2.65017e-12 0)
(580 -1.6133e-12 0)
(580 -1.79379e-12 0)
(580 -2.16553e-12 0)
(580 -1.6192e-12 0)
(580 -1.12383e-12 0)
(580 -1.53616e-12 0)
(580 -1.18308e-12 0)
(580 -4.44297e-14 0)
(580 3.06634e-13 0)
(580 6.09428e-14 0)
(580 -5.96367e-13 0)
(580 -1.23375e-12 0)
(580 -1.55961e-12 0)
(580 -1.74594e-12 0)
(580 -2.06673e-12 0)
(580 -2.8842e-12 0)
(580 -3.21418e-12 0)
(580 -3.45044e-12 0)
(580 -3.96426e-12 0)
(580 -4.08869e-12 0)
(580 -4.20649e-12 0)
(580 -4.50194e-12 0)
(580 -4.83948e-12 0)
(580 -6.83815e-12 0)
(580 -6.9654e-12 0)
(580 -7.11192e-12 0)
(580 -6.98936e-12 0)
(580 -6.78116e-12 0)
(580 -6.96719e-12 0)
(580 -7.26361e-12 0)
(580 -7.87402e-12 0)
(580 -8.28377e-12 0)
(580 -8.19132e-12 0)
(580 -7.93745e-12 0)
(580 -7.41001e-12 0)
(580 -7.37375e-12 0)
(580 -7.36247e-12 0)
(580 -7.4999e-12 0)
(580 -7.22688e-12 0)
(580 -6.83514e-12 0)
(580 -6.60108e-12 0)
(580 -6.28089e-12 0)
(580 -5.97819e-12 0)
(580 -5.64144e-12 0)
(580 -5.17155e-12 0)
(580 -4.73462e-12 0)
(580 -4.45358e-12 0)
(580 -4.52542e-12 0)
(580 -3.95831e-12 0)
(580 -3.3852e-12 0)
(580 -3.18784e-12 0)
(580 -3.62283e-12 0)
(580 -4.15011e-12 0)
(580 -4.55967e-12 0)
(580 -4.72191e-12 0)
(580 -4.84906e-12 0)
(580 -4.83396e-12 0)
(580 -4.26123e-12 0)
(580 -4.17955e-12 0)
(580 -3.95394e-12 0)
(580 -3.80909e-12 0)
(580 -3.89731e-12 0)
(580 -3.59355e-12 0)
(580 -3.42984e-12 0)
(580 -3.21368e-12 0)
(580 -2.90729e-12 0)
(580 -1.69912e-12 0)
(580 -5.25716e-13 0)
(580 -6.35349e-13 0)
(580 -8.99898e-13 0)
(580 -9.77802e-13 0)
(580 -7.59764e-13 0)
(580 -9.42376e-13 0)
(580 -1.12485e-12 0)
(580 -7.80433e-13 0)
(580 -3.33029e-13 0)
(580 -1.7447e-13 0)
(580 -2.15354e-13 0)
(580 -3.83613e-13 0)
(580 -5.58795e-13 0)
(580 -9.28852e-13 0)
(580 -1.04813e-12 0)
(580 -1.47796e-12 0)
(580 -1.64688e-12 0)
(580 -1.97552e-12 0)
(580 -2.6166e-12 0)
(580 -3.89217e-12 0)
(580 -5.20676e-12 0)
(580 -5.49869e-12 0)
(580 -5.63333e-12 0)
(580 -5.63883e-12 0)
(580 -5.7246e-12 0)
(580 -5.96665e-12 0)
(580 -6.24371e-12 0)
(580 -6.52199e-12 0)
(580 -6.67317e-12 0)
(580 -7.03588e-12 0)
(580 -8.0844e-12 0)
(580 -8.22385e-12 0)
(580 -8.1905e-12 0)
(580 -8.09192e-12 0)
(580 -8.08424e-12 0)
(580 -8.11773e-12 0)
(580 -8.03678e-12 0)
(580 -8.43835e-12 0)
(580 -8.64065e-12 0)
(580 -8.86173e-12 0)
(580 -8.78622e-12 0)
(580 -8.59553e-12 0)
(580 -8.53452e-12 0)
(580 -8.37572e-12 0)
(580 -8.15911e-12 0)
(580 -7.71276e-12 0)
(580 -7.3548e-12 0)
(580 -6.99821e-12 0)
(580 -6.67761e-12 0)
(580 -6.9061e-12 0)
(580 -6.29299e-12 0)
(580 -5.44977e-12 0)
(580 -4.95007e-12 0)
(580 -4.81983e-12 0)
(580 -5.03619e-12 0)
(580 -5.16118e-12 0)
(580 -5.356e-12 0)
(580 -5.53003e-12 0)
(580 -5.61893e-12 0)
(580 -5.58345e-12 0)
(580 -5.25895e-12 0)
(580 -4.87421e-12 0)
(580 -4.76083e-12 0)
(580 -5.00229e-12 0)
(580 -4.44266e-12 0)
(580 -3.65269e-12 0)
(580 -2.48054e-12 0)
(580 -1.74718e-12 0)
(580 -1.7359e-12 0)
(580 -1.60798e-12 0)
(580 -9.47909e-13 0)
(580 -4.49762e-13 0)
(580 -1.87204e-13 0)
(580 2.31826e-13 0)
(580 5.19126e-13 0)
(580 7.92312e-13 0)
(580 8.21716e-13 0)
(580 9.38292e-13 0)
(580 7.89358e-13 0)
(580 7.27374e-13 0)
(580 5.88733e-13 0)
(580 3.32656e-13 0)
(580 1.27056e-13 0)
(580 -1.49058e-13 0)
(580 -2.65098e-13 0)
(580 -1.06742e-12 0)
(580 -1.30455e-12 0)
(580 -1.62806e-12 0)
(580 -2.59475e-12 0)
(580 -3.85027e-12 0)
(580 -4.29255e-12 0)
(580 -5.56328e-12 0)
(580 -6.73289e-12 0)
(580 -7.00479e-12 0)
(580 -7.27781e-12 0)
(580 -7.60516e-12 0)
(580 -5.79458e-12 0)
(580 -6.52193e-12 0)
(580 -6.86943e-12 0)
(580 -6.75873e-12 0)
(580 -6.52859e-12 0)
(580 -6.91858e-12 0)
(580 -6.93332e-12 0)
(580 -6.85034e-12 0)
(580 -6.9245e-12 0)
(580 -7.4874e-12 0)
(580 -7.86509e-12 0)
(580 -8.03881e-12 0)
(580 -8.17938e-12 0)
(580 -8.63828e-12 0)
(580 -8.82729e-12 0)
(580 -8.84613e-12 0)
(580 -8.65625e-12 0)
(580 -8.62212e-12 0)
(580 -8.54894e-12 0)
(580 -8.5911e-12 0)
(580 -8.40622e-12 0)
(580 -7.97035e-12 0)
(580 -7.90221e-12 0)
(580 -8.02511e-12 0)
(580 -7.94985e-12 0)
(580 -7.92344e-12 0)
(580 -7.71179e-12 0)
(580 -6.83505e-12 0)
(580 -6.64475e-12 0)
(580 -6.40784e-12 0)
(580 -6.36134e-12 0)
(580 -6.27982e-12 0)
(580 -6.12845e-12 0)
(580 -5.85573e-12 0)
(580 -5.47513e-12 0)
(580 -5.52207e-12 0)
(580 -5.34339e-12 0)
(580 -5.11684e-12 0)
(580 -4.91431e-12 0)
(580 -4.24034e-12 0)
(580 -3.39603e-12 0)
(580 -1.98016e-12 0)
(580 -1.36367e-12 0)
(580 -1.22101e-12 0)
(580 -1.14111e-12 0)
(580 -1.04503e-12 0)
(580 -7.93707e-13 0)
(580 -4.6206e-13 0)
(580 -9.21723e-14 0)
(580 4.97876e-13 0)
(580 6.38236e-13 0)
(580 6.66878e-13 0)
(580 8.06537e-13 0)
(580 8.75082e-13 0)
(580 9.66723e-13 0)
(580 1.18477e-12 0)
(580 6.54558e-13 0)
(580 4.78205e-13 0)
(580 2.84925e-13 0)
(580 -6.62865e-13 0)
(580 -9.29979e-13 0)
(580 -1.71117e-12 0)
(580 -3.08644e-12 0)
(580 -3.5541e-12 0)
(580 -4.06288e-12 0)
(580 -4.80892e-12 0)
(580 -5.40705e-12 0)
(580 -6.39618e-12 0)
(580 -7.76279e-12 0)
(580 -8.69874e-12 0)
(580 -4.92334e-12 0)
(580 -5.012e-12 0)
(580 -4.82983e-12 0)
(580 -4.73564e-12 0)
(580 -4.8487e-12 0)
(580 -4.99715e-12 0)
(580 -4.86153e-12 0)
(580 -4.76288e-12 0)
(580 -4.80663e-12 0)
(580 -4.8469e-12 0)
(580 -4.69964e-12 0)
(580 -4.50539e-12 0)
(580 -4.10847e-12 0)
(580 -3.95426e-12 0)
(580 -3.58044e-12 0)
(580 -3.44724e-12 0)
(580 -3.77044e-12 0)
(580 -3.97124e-12 0)
(580 -4.47635e-12 0)
(580 -4.88226e-12 0)
(580 -5.52157e-12 0)
(580 -6.24018e-12 0)
(580 -6.57996e-12 0)
(580 -6.7638e-12 0)
(580 -6.76981e-12 0)
(580 -6.56733e-12 0)
(580 -6.36979e-12 0)
(580 -6.17879e-12 0)
(580 -6.0946e-12 0)
(580 -5.6344e-12 0)
(580 -4.80743e-12 0)
(580 -5.01305e-12 0)
(580 -5.00159e-12 0)
(580 -4.60924e-12 0)
(580 -3.9429e-12 0)
(580 -3.54163e-12 0)
(580 -3.29815e-12 0)
(580 -2.60409e-12 0)
(580 -2.36837e-12 0)
(580 -2.31857e-12 0)
(580 -2.52148e-12 0)
(580 -2.6291e-12 0)
(580 -2.43888e-12 0)
(580 -2.18951e-12 0)
(580 -1.99417e-12 0)
(580 -1.81899e-12 0)
(580 -1.78619e-12 0)
(580 -1.61042e-12 0)
(580 -1.22932e-12 0)
(580 -1.04193e-12 0)
(580 -9.71468e-13 0)
(580 -6.67837e-13 0)
(580 -2.38932e-13 0)
(580 8.09467e-14 0)
(580 -6.92143e-14 0)
(580 -4.29224e-13 0)
(580 -9.45833e-14 0)
(580 6.45985e-14 0)
(580 8.04763e-16 0)
(580 -1.79595e-13 0)
(580 -3.86163e-13 0)
(580 -9.28087e-13 0)
(580 -1.36754e-12 0)
(580 -1.76172e-12 0)
(580 -2.33589e-12 0)
(580 -2.65101e-12 0)
(580 -3.31932e-12 0)
(580 -3.70144e-12 0)
(580 -4.028e-12 0)
(580 -4.284e-12 0)
(580 -4.6358e-12 0)
(580 -4.30417e-12 0)
(580 -4.22203e-12 0)
(580 -4.17335e-12 0)
(580 -4.16156e-12 0)
(580 -3.84599e-12 0)
(580 -3.86762e-12 0)
(580 -3.74722e-12 0)
(580 -3.66115e-12 0)
(580 -3.35917e-12 0)
(580 -3.38054e-12 0)
(580 -3.46833e-12 0)
(580 -3.6284e-12 0)
(580 -3.64081e-12 0)
(580 -3.5833e-12 0)
(580 -3.67253e-12 0)
(580 -3.75876e-12 0)
(580 -3.97814e-12 0)
(580 -4.05338e-12 0)
(580 -3.98335e-12 0)
(580 -3.63417e-12 0)
(580 -3.49883e-12 0)
(580 -3.2345e-12 0)
(580 -3.21137e-12 0)
(580 -3.64252e-12 0)
(580 -3.27343e-12 0)
(580 -2.89694e-12 0)
(580 -2.07444e-12 0)
(580 -1.56963e-12 0)
(580 -1.5762e-12 0)
(580 -1.7341e-12 0)
(580 -1.67212e-12 0)
(580 -1.94757e-12 0)
(580 -2.00113e-12 0)
(580 -2.18865e-12 0)
(580 -2.202e-12 0)
(580 -2.12559e-12 0)
(580 -1.77585e-12 0)
(580 -1.55876e-12 0)
(580 -1.68172e-12 0)
(580 -1.93389e-12 0)
(580 -2.23673e-12 0)
(580 -2.3758e-12 0)
(580 -2.37404e-12 0)
(580 -2.20374e-12 0)
(580 -2.01434e-12 0)
(580 -1.8888e-12 0)
(580 -1.69331e-12 0)
(580 -1.75068e-12 0)
(580 -1.89353e-12 0)
(580 -1.81204e-12 0)
(580 -1.74654e-12 0)
(580 -2.02547e-12 0)
(580 -1.87166e-12 0)
(580 -2.01377e-12 0)
(580 -2.2418e-12 0)
(580 -2.4133e-12 0)
(580 -2.10912e-12 0)
(580 -2.68196e-12 0)
(580 -2.84378e-12 0)
(580 -2.86933e-12 0)
(580 -3.00383e-12 0)
(580 -3.11675e-12 0)
(580 -3.08194e-12 0)
(580 -3.03573e-12 0)
(580 -3.24361e-12 0)
(580 -3.61666e-12 0)
(580 -3.66867e-12 0)
(580 -3.79092e-12 0)
(580 -3.66287e-12 0)
(580 -4.4953e-12 0)
(580 -4.40316e-12 0)
(580 -4.50623e-12 0)
(580 -4.51154e-12 0)
(580 -4.36843e-12 0)
(580 -4.30881e-12 0)
(580 -4.33283e-12 0)
(580 -4.47309e-12 0)
(580 -4.34851e-12 0)
(580 -4.27149e-12 0)
(580 -4.21842e-12 0)
(580 -4.10082e-12 0)
(580 -4.08572e-12 0)
(580 -3.66303e-12 0)
(580 -3.54744e-12 0)
(580 -3.81486e-12 0)
(580 -3.20549e-12 0)
(580 -3.04252e-12 0)
(580 -2.39848e-12 0)
(580 -1.87327e-12 0)
(580 -1.99129e-12 0)
(580 -1.9795e-12 0)
(580 -1.92269e-12 0)
(580 -2.07687e-12 0)
(580 -1.67274e-12 0)
(580 -1.84003e-12 0)
(580 -1.62168e-12 0)
(580 -1.38646e-12 0)
(580 -1.38021e-12 0)
(580 -1.46425e-12 0)
(580 -1.44983e-12 0)
(580 -1.5909e-12 0)
(580 -1.57749e-12 0)
(580 -1.57602e-12 0)
(580 -1.64407e-12 0)
(580 -1.75634e-12 0)
(580 -1.71668e-12 0)
(580 -1.6645e-12 0)
(580 -1.76905e-12 0)
(580 -1.58319e-12 0)
(580 -1.3581e-12 0)
(580 -1.06089e-12 0)
(580 -1.03463e-12 0)
(580 -5.50185e-13 0)
(580 -3.64707e-13 0)
(580 -5.19859e-13 0)
(580 -4.75685e-13 0)
(580 -9.77792e-13 0)
(580 -1.58556e-12 0)
(580 -1.65657e-12 0)
(580 -1.78535e-12 0)
(580 -1.98434e-12 0)
(580 -1.74377e-12 0)
(580 -2.59044e-12 0)
(580 -2.61098e-12 0)
(580 -2.73376e-12 0)
(580 -2.64042e-12 0)
(580 -3.01832e-12 0)
(580 -3.44596e-12 0)
(580 -3.55004e-12 0)
(580 -3.83549e-12 0)
(580 -3.96552e-12 0)
(580 -3.90742e-12 0)
(580 -3.82414e-12 0)
(580 -3.73763e-12 0)
(580 -3.78941e-12 0)
(580 -3.76536e-12 0)
(580 -3.16882e-12 0)
(580 -3.19481e-12 0)
(580 -3.5589e-12 0)
(580 -3.50887e-12 0)
(580 -3.62549e-12 0)
(580 -3.6298e-12 0)
(580 -3.48719e-12 0)
(580 -3.34638e-12 0)
(580 -3.23797e-12 0)
(580 -3.27397e-12 0)
(580 -3.62728e-12 0)
(580 -3.35768e-12 0)
(580 -2.98699e-12 0)
(580 -2.89426e-12 0)
(580 -2.67546e-12 0)
(580 -2.40676e-12 0)
(580 -2.08104e-12 0)
(580 -2.16872e-12 0)
(580 -2.53627e-12 0)
(580 -2.30856e-12 0)
(580 -1.96012e-12 0)
(580 -1.80354e-12 0)
(580 -1.84716e-12 0)
(580 -1.69168e-12 0)
(580 -1.65904e-12 0)
(580 -1.59003e-12 0)
(580 -1.63339e-12 0)
(580 -1.79138e-12 0)
(580 -1.79931e-12 0)
(580 -1.66694e-12 0)
(580 -1.54195e-12 0)
(580 -1.32055e-12 0)
(580 -1.12192e-12 0)
(580 -7.43358e-13 0)
(580 -6.70385e-13 0)
(580 -6.81252e-13 0)
(580 -4.32825e-13 0)
(580 -4.01696e-13 0)
(580 -3.15215e-13 0)
(580 -5.24123e-13 0)
(580 -1.10158e-12 0)
(580 -1.40682e-12 0)
(580 -1.32053e-12 0)
(580 -5.21862e-13 0)
(580 -3.09881e-13 0)
(580 -2.69592e-13 0)
(580 -4.48851e-13 0)
(580 -8.81561e-13 0)
(580 -1.34258e-12 0)
(580 -2.12605e-12 0)
(580 -2.1114e-12 0)
(580 -1.92635e-12 0)
(580 -1.95237e-12 0)
(580 -1.8189e-12 0)
(580 -2.3747e-12 0)
(580 -2.64815e-12 0)
(580 -3.07295e-12 0)
(580 -3.41159e-12 0)
(580 -3.87589e-12 0)
(580 -4.49034e-12 0)
(580 -4.87419e-12 0)
(580 -5.2653e-12 0)
(580 -5.71455e-12 0)
(580 -5.56334e-12 0)
(580 -5.36308e-12 0)
(580 -4.3875e-12 0)
(580 -4.52178e-12 0)
(580 -4.40772e-12 0)
(580 -4.59678e-12 0)
(580 -3.82952e-12 0)
(580 -3.46125e-12 0)
(580 -2.9789e-12 0)
(580 -2.57443e-12 0)
(580 -3.66112e-12 0)
(580 -3.84732e-12 0)
(580 -4.55522e-12 0)
(580 -4.63641e-12 0)
(580 -4.54668e-12 0)
(580 -4.45798e-12 0)
(580 -4.51519e-12 0)
(580 -4.20711e-12 0)
(580 -4.15535e-12 0)
(580 -4.69541e-12 0)
(580 -4.7125e-12 0)
(580 -4.90228e-12 0)
(580 -4.90795e-12 0)
(580 -4.62839e-12 0)
(580 -4.09165e-12 0)
(580 -3.62361e-12 0)
(580 -3.58896e-12 0)
(580 -3.66505e-12 0)
(580 -3.61604e-12 0)
(580 -3.58171e-12 0)
(580 -3.36027e-12 0)
(580 -3.15441e-12 0)
(580 -2.93781e-12 0)
(580 -2.67771e-12 0)
(580 -2.30677e-12 0)
(580 -2.025e-12 0)
(580 -1.89169e-12 0)
(580 -1.65241e-12 0)
(580 -1.54057e-12 0)
(580 -1.06107e-12 0)
(580 -8.95658e-13 0)
(580 -4.97118e-13 0)
(580 -3.35931e-14 0)
(580 2.33481e-13 0)
(580 4.00182e-13 0)
(580 3.24066e-13 0)
(580 -5.00637e-14 0)
(580 -1.87408e-13 0)
(580 -4.46928e-13 0)
(580 -6.18996e-13 0)
(580 -9.2744e-13 0)
(580 -8.9592e-13 0)
(580 -1.14804e-12 0)
(580 -1.48899e-12 0)
(580 -1.75136e-12 0)
(580 -2.13098e-12 0)
(580 -2.37002e-12 0)
(580 -2.80644e-12 0)
(580 -3.31231e-12 0)
(580 -3.48986e-12 0)
(580 -4.09883e-12 0)
(580 -5.01541e-12 0)
(580 -5.78867e-12 0)
(580 -5.9796e-12 0)
(580 -6.18365e-12 0)
(580 -6.44377e-12 0)
(580 -6.68099e-12 0)
(580 -6.93963e-12 0)
(580 -6.70031e-12 0)
(580 -6.18158e-12 0)
(580 -5.74392e-12 0)
(580 -5.64101e-12 0)
(580 -6.08308e-12 0)
(580 -5.52155e-12 0)
(580 -5.32452e-12 0)
(580 -4.68383e-12 0)
(580 -4.45345e-12 0)
(580 -4.18421e-12 0)
(580 -3.83671e-12 0)
(580 -3.40311e-12 0)
(580 -3.32028e-12 0)
(580 -3.2639e-12 0)
(580 -2.75057e-12 0)
(580 -2.60567e-12 0)
(580 -3.10333e-12 0)
(580 -3.08049e-12 0)
(580 -3.14432e-12 0)
(580 -3.0737e-12 0)
(580 -3.16348e-12 0)
(580 -2.75468e-12 0)
(580 -2.66442e-12 0)
(580 -2.5229e-12 0)
(580 -2.28736e-12 0)
(580 -2.10334e-12 0)
(580 -1.91108e-12 0)
(580 -1.32774e-12 0)
(580 -1.00805e-12 0)
(580 -1.32982e-12 0)
(580 -1.49624e-12 0)
(580 -1.42462e-12 0)
(580 -1.43349e-12 0)
(580 -1.22443e-12 0)
(580 -1.2437e-12 0)
(580 -9.62909e-13 0)
(580 -1.08517e-12 0)
(580 -1.33478e-12 0)
(580 -1.65674e-12 0)
(580 -2.2555e-12 0)
(580 -2.80084e-12 0)
(580 -2.86185e-12 0)
(580 -2.98303e-12 0)
(580 -2.88232e-12 0)
(580 -3.06933e-12 0)
(580 -3.0973e-12 0)
(580 -3.04667e-12 0)
(580 -3.26323e-12 0)
(580 -3.45519e-12 0)
(580 -3.4263e-12 0)
(580 -3.61994e-12 0)
(580 -3.89424e-12 0)
(580 -4.21934e-12 0)
(580 -4.31157e-12 0)
(580 -4.57264e-12 0)
(580 -4.76911e-12 0)
(580 -5.0927e-12 0)
(580 -5.24015e-12 0)
(580 -5.23329e-12 0)
(580 -5.42095e-12 0)
(580 -5.6865e-12 0)
(580 -6.4423e-12 0)
(580 -7.10883e-12 0)
(580 -7.22188e-12 0)
(580 -6.92615e-12 0)
(580 -7.77817e-12 0)
(580 -7.77416e-12 0)
(580 -7.78453e-12 0)
(580 -7.14215e-12 0)
(580 -6.74641e-12 0)
(580 -6.05578e-12 0)
(580 -5.5146e-12 0)
(580 -5.19001e-12 0)
(580 -4.95117e-12 0)
(580 -4.68427e-12 0)
(580 -4.40832e-12 0)
(580 -4.07033e-12 0)
(580 -3.60016e-12 0)
(580 -3.43426e-12 0)
(580 -3.33462e-12 0)
(580 -3.05936e-12 0)
(580 -2.94897e-12 0)
(580 -3.35656e-12 0)
(580 -3.25716e-12 0)
(580 -2.88469e-12 0)
(580 -2.76797e-12 0)
(580 -2.57651e-12 0)
(580 -2.09674e-12 0)
(580 -1.83809e-12 0)
(580 -1.22068e-12 0)
(580 -8.76722e-13 0)
(580 -3.08609e-13 0)
(580 4.17506e-15 0)
(580 3.3442e-13 0)
(580 5.35716e-13 0)
(580 5.88327e-13 0)
(580 6.06106e-13 0)
(580 7.88232e-14 0)
(580 -3.14272e-13 0)
(580 1.25436e-13 0)
(580 8.2017e-13 0)
(580 9.55123e-13 0)
(580 8.32017e-13 0)
(580 5.75605e-13 0)
(580 1.07543e-13 0)
(580 -4.02633e-13 0)
(580 -8.53197e-13 0)
(580 -1.02499e-12 0)
(580 -1.32026e-12 0)
(580 -1.59266e-12 0)
(580 -1.85035e-12 0)
(580 -2.27228e-12 0)
(580 -2.85635e-12 0)
(580 -3.30094e-12 0)
(580 -3.9923e-12 0)
(580 -4.37576e-12 0)
(580 -4.96152e-12 0)
(580 -5.3257e-12 0)
(580 -5.54786e-12 0)
(580 -5.83719e-12 0)
(580 -6.14492e-12 0)
(580 -6.44289e-12 0)
(580 -6.58864e-12 0)
(580 -6.66808e-12 0)
(580 -7.07427e-12 0)
(580 -7.14662e-12 0)
(580 -7.41161e-12 0)
(580 -7.22912e-12 0)
(580 -6.88755e-12 0)
(580 -6.60723e-12 0)
(580 -7.02626e-12 0)
(580 -7.09515e-12 0)
(580 -6.7019e-12 0)
(580 -6.5635e-12 0)
(580 -7.02749e-12 0)
(580 -7.00506e-12 0)
(580 -6.80876e-12 0)
(580 -6.53646e-12 0)
(580 -6.20686e-12 0)
(580 -5.61309e-12 0)
(580 -5.02644e-12 0)
(580 -4.45431e-12 0)
(580 -3.97917e-12 0)
(580 -3.71318e-12 0)
(580 -3.47041e-12 0)
(580 -3.22218e-12 0)
(580 -2.75054e-12 0)
(580 -2.46834e-12 0)
(580 -1.87064e-12 0)
(580 -2.77527e-12 0)
(580 -3.79286e-12 0)
(580 -3.6421e-12 0)
(580 -1.25395e-12 0)
(580 -8.1925e-13 0)
(580 -4.25766e-13 0)
(580 -2.10165e-13 0)
(580 2.66346e-13 0)
(580 7.44919e-13 0)
(580 8.83956e-13 0)
(580 1.09058e-12 0)
(580 1.54886e-12 0)
(580 1.63952e-12 0)
(580 1.99549e-12 0)
(580 1.58762e-12 0)
(580 1.1318e-12 0)
(580 1.07555e-12 0)
(580 7.85767e-13 0)
(580 1.54486e-13 0)
(580 -2.59919e-13 0)
(580 -4.89184e-13 0)
(580 -9.18813e-13 0)
(580 -1.04105e-12 0)
(580 -1.09263e-12 0)
(580 -1.41706e-12 0)
(580 -1.88568e-12 0)
(580 -2.04874e-12 0)
(580 -2.30882e-12 0)
(580 -2.52458e-12 0)
(580 -2.94994e-12 0)
(580 -3.27678e-12 0)
(580 -3.25612e-12 0)
(580 -3.52238e-12 0)
(580 -3.90012e-12 0)
(580 -4.46319e-12 0)
(580 -4.5455e-12 0)
(580 -4.70965e-12 0)
(580 -5.23781e-12 0)
(580 -5.43373e-12 0)
(580 -5.58722e-12 0)
(580 -5.58502e-12 0)
(580 -5.85617e-12 0)
(580 -6.37656e-12 0)
(580 -6.46989e-12 0)
(580 -6.71996e-12 0)
(580 -6.71927e-12 0)
(580 -6.52936e-12 0)
(580 -6.32564e-12 0)
(580 -6.22794e-12 0)
(580 -6.14257e-12 0)
(580 -5.99737e-12 0)
(580 -5.3936e-12 0)
(580 -5.28876e-12 0)
(580 -4.85038e-12 0)
(580 -4.27543e-12 0)
(580 -3.93844e-12 0)
(580 -3.42529e-12 0)
(580 -2.95699e-12 0)
(580 -2.60581e-12 0)
(580 -2.35507e-12 0)
(580 -2.47301e-12 0)
(580 -2.2734e-12 0)
(580 -2.56758e-12 0)
(580 -2.68216e-12 0)
(580 -2.99522e-12 0)
(580 -2.69498e-12 0)
(580 -2.86802e-12 0)
(580 -2.74348e-12 0)
(580 -3.05446e-12 0)
(580 -3.30735e-12 0)
(580 -3.85463e-12 0)
(580 -3.50762e-12 0)
(580 -3.21281e-12 0)
(580 1.19992e-12 0)
(580 1.23513e-12 0)
(580 1.58937e-12 0)
(580 2.07344e-12 0)
(580 1.93483e-12 0)
(580 1.857e-12 0)
(580 1.80109e-12 0)
(580 1.53683e-12 0)
(580 1.01998e-12 0)
(580 8.97136e-13 0)
(580 4.85576e-13 0)
(580 1.39871e-13 0)
(580 -2.53492e-13 0)
(580 -3.9483e-13 0)
(580 -7.80486e-13 0)
(580 -1.21113e-12 0)
(580 -1.58668e-12 0)
(580 -2.07757e-12 0)
(580 -2.4412e-12 0)
(580 -2.72902e-12 0)
(580 -3.00732e-12 0)
(580 -3.5106e-12 0)
(580 -3.62613e-12 0)
(580 -3.66912e-12 0)
(580 -3.32114e-12 0)
(580 -3.39101e-12 0)
(580 -3.93248e-12 0)
(580 -3.71825e-12 0)
(580 -3.76669e-12 0)
(580 -3.72191e-12 0)
(580 -3.75723e-12 0)
(580 -3.79769e-12 0)
(580 -3.69912e-12 0)
(580 -4.07289e-12 0)
(580 -4.44113e-12 0)
(580 -4.41907e-12 0)
(580 -4.31563e-12 0)
(580 -4.31305e-12 0)
(580 -4.25052e-12 0)
(580 -4.15413e-12 0)
(580 -4.32088e-12 0)
(580 -4.57163e-12 0)
(580 -4.59052e-12 0)
(580 -4.31322e-12 0)
(580 -4.07216e-12 0)
(580 -3.9181e-12 0)
(580 -4.08429e-12 0)
(580 -4.08148e-12 0)
(580 -3.71824e-12 0)
(580 -2.92739e-12 0)
(580 -2.53104e-12 0)
(580 -2.29707e-12 0)
(580 -1.63843e-12 0)
(580 -1.21036e-12 0)
(580 -1.56811e-12 0)
(580 -1.25022e-12 0)
(580 -9.3299e-13 0)
(580 -1.30541e-12 0)
(580 -2.01488e-12 0)
(580 -2.31278e-12 0)
(580 -2.20053e-12 0)
(580 -2.03229e-12 0)
(580 -2.37505e-12 0)
(580 -2.59777e-12 0)
(580 -2.86408e-12 0)
(580 -3.22291e-12 0)
(580 -3.8143e-12 0)
(580 -3.94271e-12 0)
(580 -4.04975e-12 0)
(580 -4.28592e-12 0)
(580 1.87208e-12 0)
(580 1.80976e-12 0)
(580 1.75198e-12 0)
(580 1.75928e-12 0)
(580 1.84713e-12 0)
(580 1.80431e-12 0)
(580 1.61519e-12 0)
(580 1.3661e-12 0)
(580 1.04709e-12 0)
(580 5.42798e-13 0)
(580 -1.69718e-13 0)
(580 -8.57712e-13 0)
(580 -1.13609e-12 0)
(580 -1.29499e-12 0)
(580 -1.72675e-12 0)
(580 -1.93175e-12 0)
(580 -2.26038e-12 0)
(580 -2.25407e-12 0)
(580 -2.22365e-12 0)
(580 -2.82744e-12 0)
(580 -3.04821e-12 0)
(580 -3.07277e-12 0)
(580 -3.20293e-12 0)
(580 -3.24794e-12 0)
(580 -3.31161e-12 0)