/*--------------------------------*- C++ -*----------------------------------*\
| =========                 |                                                 |
| \\      /  F ield         | OpenFOAM: The Open Source CFD Toolbox           |
|  \\    /   O peration     | Version:  2306                                  |
|   \\  /    A nd           | Website:  www.openfoam.com                      |
|    \\/     M anipulation  |                                                 |
\*---------------------------------------------------------------------------*/
FoamFile
{
    version     2.0;
    format      ascii;
    arch        "LSB;label=32;scalar=64";
    class       volVectorField;
    location    "5e-05";
    object      U;
}
// * * * * * * * * * * * * * * * * * * * * * * * * * * * * * * * * * * * * * //

dimensions      [0 1 -1 0 0 0 0];

internalField   nonuniform List<vector> 
8983
(
(580 8.83844e-15 0)
(580 2.20768e-14 0)
(580 1.15924e-13 0)
(580 2.08057e-13 0)
(580 2.57552e-13 0)
(580 1.92574e-13 0)
(580 1.89147e-13 0)
(580 1.2382e-13 0)
(580 1.83154e-13 0)
(580 3.02802e-13 0)
(580 3.09946e-13 0)
(580 3.49423e-13 0)
(580 3.50579e-13 0)
(580 3.68077e-13 0)
(580 4.11141e-13 0)
(580 3.20442e-13 0)
(580 2.49226e-13 0)
(580 1.51739e-13 0)
(580 6.14295e-14 0)
(580 1.26955e-14 0)
(580 8.4796e-14 0)
(580 5.94681e-14 0)
(580 2.61811e-13 0)
(580 2.26203e-13 0)
(580 4.6014e-13 0)
(580 5.85409e-13 0)
(580 7.00035e-13 0)
(580 8.0698e-13 0)
(580 8.51478e-13 0)
(580 9.93851e-13 0)
(580 1.01923e-12 0)
(580 1.24829e-12 0)
(580 1.33506e-12 0)
(580 1.4532e-12 0)
(580 1.7065e-12 0)
(580 2.0264e-12 0)
(580 2.28482e-12 0)
(580 2.32773e-12 0)
(580 2.36914e-12 0)
(580 2.39881e-12 0)
(580 2.38062e-12 0)
(580 2.36266e-12 0)
(580 2.4514e-12 0)
(580 2.14337e-14 0)
(580 1.69543e-13 0)
(580 2.59508e-13 0)
(580 2.70848e-13 0)
(580 3.91563e-13 0)
(580 4.07878e-13 0)
(580 4.72016e-13 0)
(580 4.92547e-13 0)
(580 5.57167e-13 0)
(580 5.62539e-13 0)
(580 5.98729e-13 0)
(580 6.48639e-13 0)
(580 7.35896e-13 0)
(580 8.43848e-13 0)
(580 8.32387e-13 0)
(580 8.66833e-13 0)
(580 8.15072e-13 0)
(580 9.35469e-13 0)
(580 1.08042e-12 0)
(580 1.08241e-12 0)
(580 1.06009e-12 0)
(580 8.3877e-13 0)
(580 6.2091e-13 0)
(580 4.4621e-13 0)
(580 5.11058e-13 0)
(580 5.29352e-13 0)
(580 7.88672e-13 0)
(580 7.6398e-13 0)
(580 7.61097e-13 0)
(580 8.19756e-13 0)
(580 7.88665e-13 0)
(580 8.93697e-13 0)
(580 1.05966e-12 0)
(580 1.51962e-12 0)
(580 1.69782e-12 0)
(580 1.77053e-12 0)
(580 1.77563e-12 0)
(580 1.89537e-12 0)
(580 1.97677e-12 0)
(580 2.17182e-12 0)
(580 2.29665e-12 0)
(580 2.28601e-12 0)
(580 2.42942e-12 0)
(580 2.80624e-12 0)
(580 3.0074e-12 0)
(580 2.89081e-12 0)
(580 3.10018e-12 0)
(580 3.08526e-12 0)
(580 3.25854e-12 0)
(580 3.4306e-12 0)
(580 3.63056e-12 0)
(580 3.89601e-12 0)
(580 4.12044e-12 0)
(580 4.40812e-12 0)
(580 4.5725e-12 0)
(580 4.805e-12 0)
(580 4.97488e-12 0)
(580 5.29602e-12 0)
(580 5.56062e-12 0)
(580 5.89201e-12 0)
(580 5.9042e-12 0)
(580 5.78299e-12 0)
(580 5.82772e-12 0)
(580 5.35386e-12 0)
(580 4.97339e-12 0)
(580 4.33122e-12 0)
(580 4.16546e-12 0)
(580 3.79196e-12 0)
(580 3.67437e-12 0)
(580 3.44183e-12 0)
(580 3.66869e-12 0)
(580 3.89385e-12 0)
(580 4.16605e-12 0)
(580 4.37135e-12 0)
(580 4.49338e-12 0)
(580 4.26963e-12 0)
(580 4.04887e-12 0)
(580 3.9827e-12 0)
(580 3.70735e-12 0)
(580 3.277e-12 0)
(580 2.93391e-14 0)
(580 8.20336e-14 0)
(580 9.31662e-14 0)
(580 1.01604e-13 0)
(580 1.16485e-13 0)
(580 2.15854e-13 0)
(580 3.23144e-13 0)
(580 4.37242e-13 0)
(580 5.57461e-13 0)
(580 5.63487e-13 0)
(580 7.86077e-13 0)
(580 9.77018e-13 0)
(580 1.10843e-12 0)
(580 1.13584e-12 0)
(580 1.13993e-12 0)
(580 1.12412e-12 0)
(580 1.25952e-12 0)
(580 1.36544e-12 0)
(580 1.28835e-12 0)
(580 1.24093e-12 0)
(580 1.02067e-12 0)
(580 8.40927e-13 0)
(580 6.75615e-13 0)
(580 6.68629e-13 0)
(580 6.61326e-13 0)
(580 7.55573e-13 0)
(580 8.15599e-13 0)
(580 7.69637e-13 0)
(580 7.80636e-13 0)
(580 7.5899e-13 0)
(580 8.28515e-13 0)
(580 9.75892e-13 0)
(580 1.1412e-12 0)
(580 1.19608e-12 0)
(580 1.34013e-12 0)
(580 1.37405e-12 0)
(580 1.34198e-12 0)
(580 1.50898e-12 0)
(580 1.62523e-12 0)
(580 1.58942e-12 0)
(580 1.72707e-12 0)
(580 2.0577e-12 0)
(580 2.3752e-12 0)
(580 2.55385e-12 0)
(580 2.69324e-12 0)
(580 2.82535e-12 0)
(580 2.9851e-12 0)
(580 3.10985e-12 0)
(580 3.28798e-12 0)
(580 3.40356e-12 0)
(580 3.49933e-12 0)
(580 3.61694e-12 0)
(580 3.72306e-12 0)
(580 3.88099e-12 0)
(580 4.11045e-12 0)
(580 4.28571e-12 0)
(580 4.643e-12 0)
(580 5.06725e-12 0)
(580 5.85018e-12 0)
(580 6.02257e-12 0)
(580 5.34714e-12 0)
(580 4.73582e-12 0)
(580 4.55028e-12 0)
(580 4.51304e-12 0)
(580 3.9809e-12 0)
(580 3.58402e-12 0)
(580 3.37326e-12 0)
(580 3.23547e-12 0)
(580 3.26384e-12 0)
(580 3.11949e-12 0)
(580 3.0052e-12 0)
(580 3.12648e-12 0)
(580 3.21517e-12 0)
(580 3.15829e-12 0)
(580 3.21531e-12 0)
(580 3.1098e-12 0)
(580 2.98667e-12 0)
(580 2.89422e-12 0)
(580 2.8421e-12 0)
(580 2.71408e-12 0)
(580 1.53738e-15 0)
(580 1.88566e-14 0)
(580 -7.34428e-14 0)
(580 -2.9958e-14 0)
(580 -5.38901e-14 0)
(580 -1.11381e-15 0)
(580 -9.57943e-14 0)
(580 -1.47347e-13 0)
(580 -9.40301e-14 0)
(580 -7.43988e-14 0)
(580 -9.67219e-14 0)
(580 5.6849e-14 0)
(580 2.36218e-13 0)
(580 4.83676e-13 0)
(580 6.58909e-13 0)
(580 6.59241e-13 0)
(580 7.41801e-13 0)
(580 8.18964e-13 0)
(580 9.14916e-13 0)
(580 9.93651e-13 0)
(580 1.09933e-12 0)
(580 1.13932e-12 0)
(580 1.00082e-12 0)
(580 7.74857e-13 0)
(580 6.08692e-13 0)
(580 5.87477e-13 0)
(580 6.07578e-13 0)
(580 7.53477e-13 0)
(580 8.45433e-13 0)
(580 8.60427e-13 0)
(580 8.60023e-13 0)
(580 8.53285e-13 0)
(580 7.6834e-13 0)
(580 7.35748e-13 0)
(580 8.77481e-13 0)
(580 1.0982e-12 0)
(580 1.31715e-12 0)
(580 1.46677e-12 0)
(580 1.54735e-12 0)
(580 1.7456e-12 0)
(580 1.94241e-12 0)
(580 2.09814e-12 0)
(580 2.52216e-12 0)
(580 2.82247e-12 0)
(580 3.13935e-12 0)
(580 3.67047e-12 0)
(580 3.73608e-12 0)
(580 3.69971e-12 0)
(580 3.916e-12 0)
(580 3.99558e-12 0)
(580 4.36314e-12 0)
(580 4.42035e-12 0)
(580 4.51154e-12 0)
(580 4.73979e-12 0)
(580 4.94211e-12 0)
(580 5.25266e-12 0)
(580 5.47161e-12 0)
(580 5.28874e-12 0)
(580 4.84645e-12 0)
(580 4.4246e-12 0)
(580 3.16058e-12 0)
(580 1.98746e-12 0)
(580 1.26123e-12 0)
(580 1.06671e-12 0)
(580 1.22637e-12 0)
(580 1.25903e-12 0)
(580 1.35144e-12 0)
(580 1.52274e-12 0)
(580 1.55555e-12 0)
(580 1.75402e-12 0)
(580 2.00371e-12 0)
(580 2.26894e-12 0)
(580 2.71981e-12 0)
(580 2.94225e-12 0)
(580 3.26889e-12 0)
(580 3.75351e-12 0)
(580 3.39039e-12 0)
(580 3.10339e-12 0)
(580 2.62657e-12 0)
(580 2.46347e-12 0)
(580 -5.20903e-14 0)
(580 -1.80637e-14 0)
(580 2.17898e-14 0)
(580 4.53035e-14 0)
(580 -3.48392e-14 0)
(580 -1.18646e-13 0)
(580 -2.42051e-13 0)
(580 -3.34973e-13 0)
(580 -5.05985e-13 0)
(580 -7.54033e-13 0)
(580 -9.46026e-13 0)
(580 -7.86028e-13 0)
(580 -6.52078e-13 0)
(580 -5.56777e-13 0)
(580 -3.91653e-13 0)
(580 6.352e-16 0)
(580 1.28981e-13 0)
(580 3.1321e-13 0)
(580 7.22178e-13 0)
(580 1.21842e-12 0)
(580 1.30436e-12 0)
(580 1.23943e-12 0)
(580 9.25034e-13 0)
(580 7.66994e-13 0)
(580 6.29773e-13 0)
(580 4.47339e-13 0)
(580 5.49375e-13 0)
(580 5.43816e-13 0)
(580 6.16873e-13 0)
(580 7.17198e-13 0)
(580 7.59321e-13 0)
(580 7.1658e-13 0)
(580 7.17044e-13 0)
(580 7.8269e-13 0)
(580 8.38268e-13 0)
(580 8.95183e-13 0)
(580 1.15645e-12 0)
(580 1.52576e-12 0)
(580 1.71532e-12 0)
(580 2.14261e-12 0)
(580 2.5692e-12 0)
(580 2.72672e-12 0)
(580 2.79578e-12 0)
(580 2.98203e-12 0)
(580 3.5626e-12 0)
(580 4.00036e-12 0)
(580 3.91076e-12 0)
(580 3.94716e-12 0)
(580 4.11401e-12 0)
(580 4.20055e-12 0)
(580 4.19896e-12 0)
(580 4.69672e-12 0)
(580 4.89545e-12 0)
(580 4.41324e-12 0)
(580 4.16775e-12 0)
(580 4.38779e-12 0)
(580 4.64363e-12 0)
(580 4.85582e-12 0)
(580 5.14469e-12 0)
(580 4.72526e-12 0)
(580 3.92087e-12 0)
(580 3.44523e-12 0)
(580 3.01939e-12 0)
(580 2.76631e-12 0)
(580 2.05229e-12 0)
(580 1.58118e-12 0)
(580 1.52216e-12 0)
(580 1.401e-12 0)
(580 1.0415e-12 0)
(580 7.29157e-13 0)
(580 1.1244e-12 0)
(580 1.52495e-12 0)
(580 2.13336e-12 0)
(580 2.31473e-12 0)
(580 2.60187e-12 0)
(580 3.19288e-12 0)
(580 3.60722e-12 0)
(580 3.61725e-12 0)
(580 3.16611e-12 0)
(580 2.82216e-12 0)
(580 -5.24895e-15 0)
(580 1.73245e-14 0)
(580 1.02402e-13 0)
(580 9.06501e-14 0)
(580 -3.76801e-14 0)
(580 -1.68058e-13 0)
(580 -6.22826e-14 0)
(580 -1.13146e-13 0)
(580 -6.78254e-14 0)
(580 -1.06884e-13 0)
(580 -1.32462e-13 0)
(580 -2.77379e-13 0)
(580 -5.32776e-13 0)
(580 -6.20822e-13 0)
(580 -6.60663e-13 0)
(580 -4.1457e-13 0)
(580 5.60398e-14 0)
(580 5.4732e-13 0)
(580 5.91288e-13 0)
(580 3.85843e-13 0)
(580 3.2886e-13 0)
(580 2.35624e-13 0)
(580 3.38182e-13 0)
(580 6.49725e-13 0)
(580 8.60122e-13 0)
(580 9.12458e-13 0)
(580 9.94536e-13 0)
(580 9.30161e-13 0)
(580 9.84863e-13 0)
(580 1.03132e-12 0)
(580 1.21901e-12 0)
(580 1.29647e-12 0)
(580 1.3637e-12 0)
(580 1.23973e-12 0)
(580 1.46299e-12 0)
(580 1.28826e-12 0)
(580 1.41453e-12 0)
(580 1.60102e-12 0)
(580 1.87412e-12 0)
(580 2.0614e-12 0)
(580 2.06718e-12 0)
(580 2.28877e-12 0)
(580 2.57389e-12 0)
(580 2.73977e-12 0)
(580 2.55597e-12 0)
(580 2.47407e-12 0)
(580 2.72947e-12 0)
(580 2.91969e-12 0)
(580 3.04776e-12 0)
(580 2.94385e-12 0)
(580 2.68107e-12 0)
(580 2.20106e-12 0)
(580 2.13046e-12 0)
(580 1.88723e-12 0)
(580 1.7884e-12 0)
(580 1.71633e-12 0)
(580 1.86071e-12 0)
(580 1.95425e-12 0)
(580 1.7168e-12 0)
(580 1.761e-12 0)
(580 2.1935e-12 0)
(580 2.23391e-12 0)
(580 2.2151e-12 0)
(580 2.2854e-12 0)
(580 2.1671e-12 0)
(580 1.7425e-12 0)
(580 1.76948e-12 0)
(580 1.26525e-12 0)
(580 8.28427e-13 0)
(580 7.07221e-13 0)
(580 7.74408e-13 0)
(580 9.49837e-13 0)
(580 1.35458e-12 0)
(580 1.4088e-12 0)
(580 1.71784e-12 0)
(580 1.99637e-12 0)
(580 2.80443e-12 0)
(580 3.27416e-12 0)
(580 3.13406e-12 0)
(580 2.6295e-12 0)
(580 5.5226e-14 0)
(580 -6.10886e-14 0)
(580 -6.88028e-14 0)
(580 -6.67527e-14 0)
(580 -2.90795e-14 0)
(580 -3.50263e-14 0)
(580 -3.76529e-14 0)
(580 -1.83679e-13 0)
(580 -9.15986e-14 0)
(580 -1.17305e-14 0)
(580 -1.2684e-13 0)
(580 -1.30052e-13 0)
(580 -1.26878e-13 0)
(580 -1.41981e-13 0)
(580 -2.86188e-13 0)
(580 -1.86513e-13 0)
(580 -8.12935e-14 0)
(580 1.74821e-13 0)
(580 9.41486e-14 0)
(580 -3.15928e-13 0)
(580 -3.55115e-13 0)
(580 -2.72906e-13 0)
(580 6.58685e-14 0)
(580 4.60131e-13 0)
(580 6.88412e-13 0)
(580 1.07603e-12 0)
(580 1.23669e-12 0)
(580 1.42126e-12 0)
(580 1.51633e-12 0)
(580 1.40949e-12 0)
(580 1.37892e-12 0)
(580 1.50414e-12 0)
(580 1.54391e-12 0)
(580 1.58252e-12 0)
(580 1.55194e-12 0)
(580 1.59622e-12 0)
(580 1.71296e-12 0)
(580 1.70169e-12 0)
(580 1.69068e-12 0)
(580 1.41889e-12 0)
(580 1.34573e-12 0)
(580 1.39591e-12 0)
(580 1.56217e-12 0)
(580 1.60408e-12 0)
(580 1.51015e-12 0)
(580 1.47075e-12 0)
(580 1.70554e-12 0)
(580 1.90446e-12 0)
(580 1.99748e-12 0)
(580 2.0293e-12 0)
(580 1.52615e-12 0)
(580 1.24676e-12 0)
(580 8.03659e-13 0)
(580 7.94163e-13 0)
(580 7.45107e-13 0)
(580 1.51156e-13 0)
(580 -2.47096e-14 0)
(580 -2.12117e-14 0)
(580 -5.51408e-13 0)
(580 -6.45693e-13 0)
(580 6.15606e-13 0)
(580 1.43629e-12 0)
(580 1.76409e-12 0)
(580 2.29901e-12 0)
(580 2.40799e-12 0)
(580 2.35317e-12 0)
(580 1.96901e-12 0)
(580 1.27302e-12 0)
(580 1.36039e-12 0)
(580 1.02133e-12 0)
(580 5.33176e-13 0)
(580 3.76308e-13 0)
(580 3.75524e-13 0)
(580 5.5325e-13 0)
(580 1.03821e-12 0)
(580 1.16503e-12 0)
(580 1.66367e-12 0)
(580 2.34046e-12 0)
(580 2.29494e-12 0)
(580 1.5958e-12 0)
(580 4.07122e-15 0)
(580 -5.908e-15 0)
(580 4.96918e-14 0)
(580 5.81312e-14 0)
(580 1.9936e-13 0)
(580 2.81955e-13 0)
(580 2.31022e-13 0)
(580 1.18717e-13 0)
(580 2.10886e-14 0)
(580 -1.19689e-14 0)
(580 -1.76341e-13 0)
(580 -2.22116e-13 0)
(580 -4.82769e-14 0)
(580 1.4304e-13 0)
(580 1.55983e-13 0)
(580 6.25314e-14 0)
(580 -8.88032e-14 0)
(580 -1.09398e-13 0)
(580 -2.02086e-15 0)
(580 4.83044e-14 0)
(580 1.34771e-13 0)
(580 1.96728e-13 0)
(580 2.08552e-13 0)
(580 3.50741e-13 0)
(580 5.32904e-13 0)
(580 7.94129e-13 0)
(580 8.35238e-13 0)
(580 7.87692e-13 0)
(580 7.64607e-13 0)
(580 8.01258e-13 0)
(580 9.25127e-13 0)
(580 1.08013e-12 0)
(580 1.38482e-12 0)
(580 1.41423e-12 0)
(580 1.40073e-12 0)
(580 1.55057e-12 0)
(580 1.43995e-12 0)
(580 1.12612e-12 0)
(580 8.90889e-13 0)
(580 8.5231e-13 0)
(580 1.06007e-12 0)
(580 1.08552e-12 0)
(580 1.10074e-12 0)
(580 1.00747e-12 0)
(580 9.95702e-13 0)
(580 9.5325e-13 0)
(580 1.04261e-12 0)
(580 1.25269e-12 0)
(580 9.64345e-13 0)
(580 1.25077e-12 0)
(580 1.40501e-12 0)
(580 1.22422e-12 0)
(580 8.81189e-13 0)
(580 4.58691e-13 0)
(580 2.16008e-13 0)
(580 -3.43599e-14 0)
(580 -1.61405e-13 0)
(580 -1.19406e-13 0)
(580 1.17206e-13 0)
(580 9.2597e-14 0)
(580 5.78993e-13 0)
(580 1.3189e-12 0)
(580 2.01643e-12 0)
(580 2.44424e-12 0)
(580 2.64343e-12 0)
(580 2.42318e-12 0)
(580 1.98254e-12 0)
(580 1.50008e-12 0)
(580 1.1718e-12 0)
(580 2.28066e-13 0)
(580 5.71232e-14 0)
(580 -7.50114e-13 0)
(580 -3.9587e-13 0)
(580 -6.69088e-14 0)
(580 7.03092e-14 0)
(580 3.57026e-13 0)
(580 4.57188e-13 0)
(580 6.23053e-13 0)
(580 6.46177e-13 0)
(580 6.63673e-13 0)
(580 -8.87524e-14 0)
(580 -1.30421e-13 0)
(580 -1.34113e-13 0)
(580 -7.21906e-14 0)
(580 -2.15097e-14 0)
(580 -1.63963e-14 0)
(580 9.24112e-14 0)
(580 7.09319e-14 0)
(580 1.31925e-13 0)
(580 1.13526e-13 0)
(580 8.14501e-14 0)
(580 -7.11735e-14 0)
(580 -3.29018e-14 0)
(580 1.45576e-14 0)
(580 2.63747e-13 0)
(580 3.11501e-13 0)
(580 1.3217e-13 0)
(580 -9.74938e-14 0)
(580 -5.83004e-14 0)
(580 3.2964e-13 0)
(580 2.41174e-13 0)
(580 3.37332e-13 0)
(580 4.83866e-13 0)
(580 5.59418e-13 0)
(580 4.65683e-13 0)
(580 2.95251e-13 0)
(580 1.36508e-13 0)
(580 1.26282e-13 0)
(580 7.48978e-14 0)
(580 1.2753e-13 0)
(580 2.73308e-13 0)
(580 4.55751e-13 0)
(580 6.03561e-13 0)
(580 1.00536e-12 0)
(580 1.20736e-12 0)
(580 1.10314e-12 0)
(580 1.06455e-12 0)
(580 1.06147e-12 0)
(580 1.04002e-12 0)
(580 8.06196e-13 0)
(580 7.41197e-13 0)
(580 4.55441e-13 0)
(580 2.84158e-13 0)
(580 2.59789e-13 0)
(580 2.5079e-13 0)
(580 6.47591e-14 0)
(580 6.13672e-14 0)
(580 3.12363e-13 0)
(580 3.93408e-13 0)
(580 6.27159e-13 0)
(580 1.08176e-12 0)
(580 1.2657e-12 0)
(580 7.87223e-13 0)
(580 3.97539e-13 0)
(580 1.61574e-13 0)
(580 -7.31519e-15 0)
(580 -3.47617e-13 0)
(580 -3.50926e-13 0)
(580 -3.3404e-13 0)
(580 -3.85465e-13 0)
(580 -2.93475e-13 0)
(580 3.15412e-13 0)
(580 9.28803e-13 0)
(580 9.09396e-13 0)
(580 6.68867e-13 0)
(580 6.1015e-13 0)
(580 5.90848e-13 0)
(580 7.05148e-13 0)
(580 5.78784e-13 0)
(580 4.30462e-13 0)
(580 2.03364e-13 0)
(580 -8.97721e-14 0)
(580 -9.46531e-15 0)
(580 1.05152e-14 0)
(580 -4.64425e-15 0)
(580 -1.16102e-13 0)
(580 -3.73324e-13 0)
(580 -1.0046e-12 0)
(580 -7.14684e-13 0)
(580 2.00627e-13 0)
(580 -1.00474e-14 0)
(580 -9.12225e-14 0)
(580 -2.2132e-13 0)
(580 -2.25072e-13 0)
(580 -2.91571e-13 0)
(580 -2.99515e-13 0)
(580 -2.58783e-13 0)
(580 -7.70519e-14 0)
(580 -1.92352e-15 0)
(580 9.997e-15 0)
(580 6.78461e-14 0)
(580 -1.41839e-13 0)
(580 -3.847e-13 0)
(580 -3.41498e-13 0)
(580 -6.27919e-14 0)
(580 1.29385e-13 0)
(580 8.20583e-15 0)
(580 -1.91493e-13 0)
(580 -2.80431e-13 0)
(580 1.31563e-13 0)
(580 5.70263e-14 0)
(580 -1.82554e-14 0)
(580 8.18674e-14 0)
(580 1.21095e-13 0)
(580 1.30937e-13 0)
(580 1.17982e-13 0)
(580 2.10713e-13 0)
(580 3.31386e-13 0)
(580 5.76028e-13 0)
(580 7.12992e-13 0)
(580 6.83673e-13 0)
(580 7.16936e-13 0)
(580 6.02039e-13 0)
(580 5.99981e-13 0)
(580 3.57382e-13 0)
(580 1.99479e-13 0)
(580 7.36398e-14 0)
(580 7.50657e-14 0)
(580 2.18513e-13 0)
(580 1.63476e-13 0)
(580 -1.87982e-13 0)
(580 -4.41815e-13 0)
(580 -6.79682e-13 0)
(580 -7.43416e-13 0)
(580 -6.76658e-13 0)
(580 -8.8589e-13 0)
(580 -8.08275e-13 0)
(580 -7.29141e-13 0)
(580 -3.12806e-13 0)
(580 -4.9485e-14 0)
(580 3.26597e-13 0)
(580 3.87283e-13 0)
(580 3.85741e-13 0)
(580 5.33267e-13 0)
(580 6.19611e-13 0)
(580 3.41573e-13 0)
(580 -2.33777e-13 0)
(580 -8.2395e-13 0)
(580 -1.25763e-12 0)
(580 -1.2214e-12 0)
(580 -1.20632e-12 0)
(580 -8.7181e-13 0)
(580 -4.8197e-13 0)
(580 -7.46244e-13 0)
(580 -1.30222e-12 0)
(580 -8.98819e-13 0)
(580 -4.39146e-13 0)
(580 4.67969e-13 0)
(580 9.44503e-13 0)
(580 1.13209e-12 0)
(580 1.05965e-12 0)
(580 9.18402e-13 0)
(580 7.4346e-13 0)
(580 4.55173e-13 0)
(580 1.95256e-13 0)
(580 -4.79021e-13 0)
(580 -1.20535e-12 0)
(580 -7.97732e-13 0)
(580 -3.57464e-13 0)
(580 2.99824e-13 0)
(580 1.43223e-14 0)
(580 -3.6607e-14 0)
(580 -1.16085e-13 0)
(580 -3.36874e-13 0)
(580 -3.68593e-13 0)
(580 -3.28119e-13 0)
(580 -2.6109e-13 0)
(580 -4.37367e-15 0)
(580 -1.03551e-13 0)
(580 -1.48556e-13 0)
(580 -1.24883e-13 0)
(580 -2.86045e-13 0)
(580 -6.66028e-13 0)
(580 -4.71015e-13 0)
(580 -3.34737e-13 0)
(580 -2.22835e-13 0)
(580 -1.36826e-13 0)
(580 -1.33864e-13 0)
(580 -6.57346e-14 0)
(580 6.34783e-14 0)
(580 1.49506e-13 0)
(580 -5.75895e-14 0)
(580 -2.2518e-13 0)
(580 1.45792e-13 0)
(580 1.72927e-13 0)
(580 4.21801e-13 0)
(580 4.92214e-13 0)
(580 5.88675e-13 0)
(580 7.29571e-13 0)
(580 9.13243e-13 0)
(580 9.89809e-13 0)
(580 8.93586e-13 0)
(580 9.60996e-13 0)
(580 6.25362e-13 0)
(580 1.82224e-13 0)
(580 -1.14698e-13 0)
(580 -3.78938e-13 0)
(580 -4.19188e-13 0)
(580 -4.0493e-13 0)
(580 -3.89361e-13 0)
(580 -3.56356e-13 0)
(580 -5.5354e-13 0)
(580 -1.10918e-12 0)
(580 -1.51856e-12 0)
(580 -1.78274e-12 0)
(580 -1.7802e-12 0)
(580 -1.63127e-12 0)
(580 -1.64197e-12 0)
(580 -1.36767e-12 0)
(580 -1.20927e-12 0)
(580 -1.02236e-12 0)
(580 -5.99709e-13 0)
(580 -2.49301e-13 0)
(580 1.22866e-13 0)
(580 1.97335e-13 0)
(580 -6.93788e-15 0)
(580 -5.35597e-14 0)
(580 -2.09962e-13 0)
(580 -3.68379e-13 0)
(580 -7.75161e-13 0)
(580 -9.41556e-13 0)
(580 -1.14457e-12 0)
(580 -1.4293e-12 0)
(580 -1.4316e-12 0)
(580 -1.17973e-12 0)
(580 -6.40685e-13 0)
(580 -2.21317e-13 0)
(580 3.71556e-13 0)
(580 9.64779e-13 0)
(580 1.33895e-12 0)
(580 1.49697e-12 0)
(580 1.27643e-12 0)
(580 1.04559e-12 0)
(580 6.25091e-13 0)
(580 2.10559e-14 0)
(580 -7.73944e-13 0)
(580 -8.24007e-13 0)
(580 -7.36395e-13 0)
(580 -4.77028e-13 0)
(580 -2.60456e-13 0)
(580 2.68459e-14 0)
(580 6.72913e-14 0)
(580 1.06545e-13 0)
(580 1.63026e-13 0)
(580 1.92295e-13 0)
(580 2.1346e-13 0)
(580 2.89516e-13 0)
(580 2.16569e-13 0)
(580 7.47915e-14 0)
(580 7.76405e-14 0)
(580 7.45183e-14 0)
(580 3.92215e-14 0)
(580 7.01971e-14 0)
(580 1.36784e-13 0)
(580 2.64405e-13 0)
(580 8.57573e-14 0)
(580 6.38981e-15 0)
(580 -2.91597e-13 0)
(580 -3.47119e-13 0)
(580 -4.00819e-13 0)
(580 -2.74399e-13 0)
(580 -2.40447e-13 0)
(580 -2.22599e-13 0)
(580 -2.00251e-13 0)
(580 -2.28286e-13 0)
(580 -1.95138e-13 0)
(580 -1.20171e-13 0)
(580 -7.77016e-14 0)
(580 -1.76802e-13 0)
(580 -3.74666e-13 0)
(580 -3.7992e-13 0)
(580 -4.15037e-13 0)
(580 -1.87623e-13 0)
(580 -2.4066e-13 0)
(580 -2.2771e-13 0)
(580 -2.96623e-13 0)
(580 -2.15608e-13 0)
(580 -2.83741e-13 0)
(580 -7.39608e-13 0)
(580 -1.05938e-12 0)
(580 -1.02568e-12 0)
(580 -1.11138e-12 0)
(580 -1.33037e-12 0)
(580 -1.66448e-12 0)
(580 -2.24472e-12 0)
(580 -2.42525e-12 0)
(580 -2.39104e-12 0)
(580 -2.25768e-12 0)
(580 -2.12345e-12 0)
(580 -2.24443e-12 0)
(580 -2.08741e-12 0)
(580 -2.0498e-12 0)
(580 -1.43656e-12 0)
(580 -1.52171e-12 0)
(580 -1.17616e-12 0)
(580 -4.81145e-13 0)
(580 -4.3254e-13 0)
(580 -4.5811e-13 0)
(580 -6.55606e-13 0)
(580 -1.00374e-12 0)
(580 -1.15416e-12 0)
(580 -1.30721e-12 0)
(580 -1.48624e-12 0)
(580 -1.25993e-12 0)
(580 -5.15647e-13 0)
(580 9.36064e-14 0)
(580 1.82765e-13 0)
(580 2.4372e-13 0)
(580 4.69934e-13 0)
(580 7.29298e-13 0)
(580 1.03875e-12 0)
(580 5.913e-13 0)
(580 3.8509e-13 0)
(580 1.16228e-13 0)
(580 -4.72369e-13 0)
(580 -6.49641e-13 0)
(580 -7.34792e-13 0)
(580 -6.7821e-13 0)
(580 -6.86539e-13 0)
(580 -6.03558e-13 0)
(580 -8.22404e-16 0)
(580 1.71245e-13 0)
(580 5.55363e-13 0)
(580 6.6703e-13 0)
(580 7.52987e-13 0)
(580 7.96708e-13 0)
(580 8.2822e-13 0)
(580 7.2876e-13 0)
(580 6.02118e-13 0)
(580 5.01273e-13 0)
(580 4.18414e-13 0)
(580 4.78107e-13 0)
(580 5.73182e-13 0)
(580 3.97368e-13 0)
(580 2.97155e-13 0)
(580 -2.16503e-14 0)
(580 -5.54552e-13 0)
(580 -8.21212e-13 0)
(580 -7.1595e-13 0)
(580 -6.79364e-13 0)
(580 -5.63704e-13 0)
(580 -3.78431e-13 0)
(580 -4.61194e-13 0)
(580 -6.60057e-13 0)
(580 -8.8883e-13 0)
(580 -8.49697e-13 0)
(580 -7.49012e-13 0)
(580 -7.84781e-13 0)
(580 -7.49777e-13 0)
(580 -7.88297e-13 0)
(580 -1.15949e-12 0)
(580 -1.22167e-12 0)
(580 -1.3651e-12 0)
(580 -1.52083e-12 0)
(580 -9.093e-13 0)
(580 -6.58362e-13 0)
(580 -6.09897e-13 0)
(580 -7.86974e-13 0)
(580 -9.2771e-13 0)
(580 -1.01314e-12 0)
(580 -1.10494e-12 0)
(580 -1.0915e-12 0)
(580 -1.15882e-12 0)
(580 -1.24708e-12 0)
(580 -1.36078e-12 0)
(580 -1.87563e-12 0)
(580 -2.38517e-12 0)
(580 -2.46635e-12 0)
(580 -2.61383e-12 0)
(580 -2.71612e-12 0)
(580 -2.68856e-12 0)
(580 -2.93753e-12 0)
(580 -3.01582e-12 0)
(580 -2.81435e-12 0)
(580 -1.97474e-12 0)
(580 -1.74276e-12 0)
(580 -1.53531e-12 0)
(580 -1.85599e-12 0)
(580 -1.91787e-12 0)
(580 -2.01541e-12 0)
(580 -1.95697e-12 0)
(580 -1.99143e-12 0)
(580 -1.58734e-12 0)
(580 -8.25331e-13 0)
(580 3.58889e-13 0)
(580 7.49187e-13 0)
(580 7.56442e-13 0)
(580 5.75775e-13 0)
(580 5.32503e-13 0)
(580 6.5719e-13 0)
(580 6.59051e-13 0)
(580 4.29933e-13 0)
(580 9.25324e-14 0)
(580 -1.28587e-14 0)
(580 3.15815e-14 0)
(580 -1.60193e-15 0)
(580 -2.32588e-13 0)
(580 -2.94847e-13 0)
(580 -2.98057e-13 0)
(580 -8.03982e-14 0)
(580 -3.03797e-14 0)
(580 -1.11454e-13 0)
(580 8.1401e-15 0)
(580 1.54161e-13 0)
(580 2.74908e-13 0)
(580 3.15387e-13 0)
(580 3.14808e-13 0)
(580 3.41699e-13 0)
(580 4.35031e-13 0)
(580 3.47094e-13 0)
(580 3.54583e-13 0)
(580 3.81758e-13 0)
(580 1.65243e-13 0)
(580 -1.05909e-13 0)
(580 -4.50763e-13 0)
(580 -9.99756e-13 0)
(580 -1.07183e-12 0)
(580 -1.10064e-12 0)
(580 -1.06689e-12 0)
(580 -1.01217e-12 0)
(580 -9.70642e-13 0)
(580 -8.17891e-13 0)
(580 -1.03857e-12 0)
(580 -1.18636e-12 0)
(580 -1.26521e-12 0)
(580 -1.49522e-12 0)
(580 -1.57867e-12 0)
(580 -1.59424e-12 0)
(580 -1.61642e-12 0)
(580 -1.48135e-12 0)
(580 -1.44523e-12 0)
(580 -1.61845e-12 0)
(580 -1.84803e-12 0)
(580 -1.76853e-12 0)
(580 -1.42113e-12 0)
(580 -1.25934e-12 0)
(580 -1.35752e-12 0)
(580 -1.4594e-12 0)
(580 -1.4534e-12 0)
(580 -1.42992e-12 0)
(580 -1.45901e-12 0)
(580 -1.71242e-12 0)
(580 -1.76037e-12 0)
(580 -1.73896e-12 0)
(580 -1.75739e-12 0)
(580 -1.76886e-12 0)
(580 -1.79804e-12 0)
(580 -2.27013e-12 0)
(580 -2.74411e-12 0)
(580 -2.76456e-12 0)
(580 -2.94779e-12 0)
(580 -2.89948e-12 0)
(580 -3.28648e-12 0)
(580 -3.66678e-12 0)
(580 -3.35948e-12 0)
(580 -3.10418e-12 0)
(580 -2.94255e-12 0)
(580 -2.96815e-12 0)
(580 -2.92579e-12 0)
(580 -2.80202e-12 0)
(580 -2.63191e-12 0)
(580 -2.02617e-12 0)
(580 -8.45007e-13 0)
(580 -2.49299e-13 0)
(580 -1.66441e-13 0)
(580 -2.51598e-13 0)
(580 9.12177e-14 0)
(580 1.62405e-13 0)
(580 1.7524e-13 0)
(580 1.65325e-13 0)
(580 -8.24571e-14 0)
(580 -3.14336e-13 0)
(580 -3.69783e-13 0)
(580 -4.32793e-13 0)
(580 -1.21392e-13 0)
(580 1.96284e-13 0)
(580 1.49991e-13 0)
(580 -4.72241e-14 0)
(580 3.40736e-13 0)
(580 8.25023e-13 0)
(580 -1.1862e-14 0)
(580 -4.01159e-14 0)
(580 -7.36758e-14 0)
(580 -3.06651e-14 0)
(580 -1.99057e-13 0)
(580 -3.17816e-13 0)
(580 -6.54349e-13 0)
(580 -8.38265e-13 0)
(580 -5.15084e-13 0)
(580 -4.04243e-13 0)
(580 -3.25412e-13 0)
(580 -1.75449e-13 0)
(580 -5.50673e-13 0)
(580 -9.79878e-13 0)
(580 -1.10485e-12 0)
(580 -1.14561e-12 0)
(580 -1.0354e-12 0)
(580 -1.16235e-12 0)
(580 -1.3298e-12 0)
(580 -1.6212e-12 0)
(580 -1.76817e-12 0)
(580 -1.49137e-12 0)
(580 -1.51049e-12 0)
(580 -1.62445e-12 0)
(580 -1.70623e-12 0)
(580 -1.82111e-12 0)
(580 -1.76565e-12 0)
(580 -1.67739e-12 0)
(580 -1.63284e-12 0)
(580 -1.61587e-12 0)
(580 -1.57046e-12 0)
(580 -1.60493e-12 0)
(580 -1.73277e-12 0)
(580 -1.78021e-12 0)
(580 -1.80319e-12 0)
(580 -1.98391e-12 0)
(580 -2.38907e-12 0)
(580 -2.32985e-12 0)
(580 -2.48017e-12 0)
(580 -2.57919e-12 0)
(580 -2.87222e-12 0)
(580 -3.08543e-12 0)
(580 -3.09297e-12 0)
(580 -2.72894e-12 0)
(580 -2.40854e-12 0)
(580 -2.09062e-12 0)
(580 -1.963e-12 0)
(580 -2.47648e-12 0)
(580 -2.87748e-12 0)
(580 -3.11346e-12 0)
(580 -3.16995e-12 0)
(580 -3.30833e-12 0)
(580 -3.50074e-12 0)
(580 -3.75778e-12 0)
(580 -4.01709e-12 0)
(580 -4.44939e-12 0)
(580 -4.34724e-12 0)
(580 -3.93827e-12 0)
(580 -3.56603e-12 0)
(580 -2.96726e-12 0)
(580 -2.53772e-12 0)
(580 -2.21652e-12 0)
(580 -2.1792e-12 0)
(580 -2.07688e-12 0)
(580 -2.47975e-12 0)
(580 -2.1201e-12 0)
(580 -1.63103e-12 0)
(580 -7.09968e-13 0)
(580 -2.89746e-13 0)
(580 -2.70721e-13 0)
(580 -2.51038e-13 0)
(580 -3.11703e-13 0)
(580 -6.21639e-14 0)
(580 -3.47185e-14 0)
(580 7.27176e-14 0)
(580 3.85798e-13 0)
(580 6.18428e-13 0)
(580 5.34958e-13 0)
(580 1.2005e-12 0)
(580 1.51117e-12 0)
(580 4.31291e-14 0)
(580 2.55566e-13 0)
(580 1.96818e-13 0)
(580 -2.42856e-14 0)
(580 -2.58808e-13 0)
(580 -4.12574e-13 0)
(580 -7.28802e-13 0)
(580 -1.05008e-12 0)
(580 -1.21613e-12 0)
(580 -1.13228e-12 0)
(580 -9.57262e-13 0)
(580 -7.83209e-13 0)
(580 -7.05053e-13 0)
(580 -7.63596e-13 0)
(580 -6.64755e-13 0)
(580 -7.03798e-13 0)
(580 -7.54693e-13 0)
(580 -9.1002e-13 0)
(580 -9.99718e-13 0)
(580 -1.48636e-12 0)
(580 -2.1157e-12 0)
(580 -2.37996e-12 0)
(580 -2.35709e-12 0)
(580 -2.35326e-12 0)
(580 -2.40522e-12 0)
(580 -2.26446e-12 0)
(580 -2.19546e-12 0)
(580 -2.21069e-12 0)
(580 -2.11162e-12 0)
(580 -2.09717e-12 0)
(580 -2.16714e-12 0)
(580 -2.1595e-12 0)
(580 -2.13145e-12 0)
(580 -2.2041e-12 0)
(580 -2.32114e-12 0)
(580 -2.34243e-12 0)
(580 -2.23579e-12 0)
(580 -2.06786e-12 0)
(580 -2.08654e-12 0)
(580 -2.20317e-12 0)
(580 -2.32052e-12 0)
(580 -2.32694e-12 0)
(580 -2.22698e-12 0)
(580 -2.1947e-12 0)
(580 -2.05434e-12 0)
(580 -1.94975e-12 0)
(580 -2.11248e-12 0)
(580 -2.38467e-12 0)
(580 -2.76294e-12 0)
(580 -3.04694e-12 0)
(580 -3.20729e-12 0)
(580 -3.46981e-12 0)
(580 -3.39218e-12 0)
(580 -3.19305e-12 0)
(580 -3.24231e-12 0)
(580 -3.3403e-12 0)
(580 -3.33159e-12 0)
(580 -3.01522e-12 0)
(580 -2.62126e-12 0)
(580 -2.35724e-12 0)
(580 -2.32298e-12 0)
(580 -2.37864e-12 0)
(580 -2.71114e-12 0)
(580 -3.01201e-12 0)
(580 -3.10276e-12 0)
(580 -2.93091e-12 0)
(580 -2.60343e-12 0)
(580 -2.38882e-12 0)
(580 -1.81034e-12 0)
(580 -8.35734e-13 0)
(580 -4.03057e-13 0)
(580 3.29799e-14 0)
(580 3.33955e-13 0)
(580 3.23239e-13 0)
(580 4.7532e-13 0)
(580 5.36136e-13 0)
(580 5.3538e-13 0)
(580 3.78997e-13 0)
(580 7.43755e-13 0)
(580 1.07961e-12 0)
(580 -3.20243e-15 0)
(580 -8.42331e-14 0)
(580 -1.73888e-13 0)
(580 -2.40817e-13 0)
(580 -2.24217e-13 0)
(580 -1.26071e-13 0)
(580 -4.3784e-14 0)
(580 2.44392e-14 0)
(580 1.26116e-15 0)
(580 1.16103e-14 0)
(580 -3.20946e-14 0)
(580 -2.52625e-13 0)
(580 -4.10848e-13 0)
(580 -4.32496e-13 0)
(580 -5.05256e-13 0)
(580 -5.25998e-13 0)
(580 -7.92811e-13 0)
(580 -8.9346e-13 0)
(580 -1.09729e-12 0)
(580 -1.2719e-12 0)
(580 -1.5706e-12 0)
(580 -1.93799e-12 0)
(580 -2.1961e-12 0)
(580 -2.14499e-12 0)
(580 -2.02494e-12 0)
(580 -1.87954e-12 0)
(580 -1.88764e-12 0)
(580 -2.04246e-12 0)
(580 -2.13163e-12 0)
(580 -2.32209e-12 0)
(580 -2.4069e-12 0)
(580 -2.52552e-12 0)
(580 -2.61449e-12 0)
(580 -2.80439e-12 0)
(580 -3.00089e-12 0)
(580 -2.95364e-12 0)
(580 -2.83251e-12 0)
(580 -2.80037e-12 0)
(580 -2.66294e-12 0)
(580 -2.52017e-12 0)
(580 -2.13169e-12 0)
(580 -2.06366e-12 0)
(580 -2.50166e-12 0)
(580 -2.76601e-12 0)
(580 -3.05172e-12 0)
(580 -3.42899e-12 0)
(580 -3.66828e-12 0)
(580 -3.82325e-12 0)
(580 -3.97768e-12 0)
(580 -4.14785e-12 0)
(580 -4.34753e-12 0)
(580 -4.54087e-12 0)
(580 -4.62822e-12 0)
(580 -4.48626e-12 0)
(580 -4.31487e-12 0)
(580 -4.2792e-12 0)
(580 -4.30223e-12 0)
(580 -4.10092e-12 0)
(580 -3.89247e-12 0)
(580 -3.6663e-12 0)
(580 -3.6094e-12 0)
(580 -3.70672e-12 0)
(580 -3.73975e-12 0)
(580 -3.72125e-12 0)
(580 -3.58062e-12 0)
(580 -3.56473e-12 0)
(580 -3.51094e-12 0)
(580 -3.44829e-12 0)
(580 -3.21436e-12 0)
(580 -2.7117e-12 0)
(580 -2.38055e-12 0)
(580 -1.84141e-12 0)
(580 -1.53604e-12 0)
(580 -1.22752e-12 0)
(580 -7.76361e-13 0)
(580 -1.52877e-13 0)
(580 1.75953e-13 0)
(580 2.73094e-13 0)
(580 4.46024e-13 0)
(580 1.00453e-13 0)
(580 -6.50271e-14 0)
(580 -2.69294e-13 0)
(580 -4.23026e-13 0)
(580 -3.93028e-13 0)
(580 -3.69891e-13 0)
(580 -1.45506e-14 0)
(580 2.55362e-13 0)
(580 1.58539e-13 0)
(580 4.00656e-13 0)
(580 3.95665e-13 0)
(580 3.17329e-13 0)
(580 1.85495e-13 0)
(580 2.19899e-14 0)
(580 -1.35371e-13 0)
(580 -5.03996e-13 0)
(580 -5.45313e-13 0)
(580 -6.98102e-13 0)
(580 -8.27578e-13 0)
(580 -9.17346e-13 0)
(580 -1.012e-12 0)
(580 -8.54247e-13 0)
(580 -1.00242e-12 0)
(580 -1.16041e-12 0)
(580 -1.18297e-12 0)
(580 -1.21517e-12 0)
(580 -1.35458e-12 0)
(580 -1.55039e-12 0)
(580 -1.85223e-12 0)
(580 -1.95224e-12 0)
(580 -2.06821e-12 0)
(580 -2.11078e-12 0)
(580 -2.30153e-12 0)
(580 -2.52075e-12 0)
(580 -2.76258e-12 0)
(580 -2.85969e-12 0)
(580 -3.04507e-12 0)
(580 -3.30276e-12 0)
(580 -3.55686e-12 0)
(580 -3.94813e-12 0)
(580 -4.06376e-12 0)
(580 -4.0823e-12 0)
(580 -4.04688e-12 0)
(580 -4.21744e-12 0)
(580 -4.48441e-12 0)
(580 -5.00259e-12 0)
(580 -5.60328e-12 0)
(580 -5.85227e-12 0)
(580 -6.19036e-12 0)
(580 -6.35189e-12 0)
(580 -6.46232e-12 0)
(580 -6.64087e-12 0)
(580 -6.62238e-12 0)
(580 -6.74788e-12 0)
(580 -6.9699e-12 0)
(580 -6.89285e-12 0)
(580 -6.66881e-12 0)
(580 -6.42996e-12 0)
(580 -6.26166e-12 0)
(580 -6.23791e-12 0)
(580 -6.10551e-12 0)
(580 -5.93766e-12 0)
(580 -5.86037e-12 0)
(580 -5.65648e-12 0)
(580 -5.59905e-12 0)
(580 -5.54309e-12 0)
(580 -5.55146e-12 0)
(580 -5.52573e-12 0)
(580 -5.46788e-12 0)
(580 -5.28953e-12 0)
(580 -4.95927e-12 0)
(580 -4.37695e-12 0)
(580 -4.0889e-12 0)
(580 -3.84481e-12 0)
(580 -3.3043e-12 0)
(580 -3.25055e-12 0)
(580 -2.73124e-12 0)
(580 -1.7478e-12 0)
(580 -1.05947e-12 0)
(580 -9.71063e-13 0)
(580 -1.08564e-12 0)
(580 -3.59897e-14 0)
(580 1.59336e-13 0)
(580 1.45054e-13 0)
(580 5.92597e-14 0)
(580 2.30334e-13 0)
(580 2.02412e-13 0)
(580 1.94273e-13 0)
(580 1.09695e-13 0)
(580 1.9051e-13 0)
(580 2.7899e-13 0)
(580 6.20597e-13 0)
(580 7.45148e-13 0)
(580 7.11137e-13 0)
(580 6.10153e-13 0)
(580 5.14982e-13 0)
(580 2.83351e-14 0)
(580 -2.0662e-13 0)
(580 -4.2716e-13 0)
(580 -4.84294e-13 0)
(580 -5.39683e-13 0)
(580 -5.11345e-13 0)
(580 -4.32529e-13 0)
(580 -3.22853e-13 0)
(580 -3.63522e-13 0)
(580 -6.9205e-13 0)
(580 -1.09938e-12 0)
(580 -1.41996e-12 0)