/*--------------------------------*- C++ -*----------------------------------*\
| =========                 |                                                 |
| \\      /  F ield         | OpenFOAM: The Open Source CFD Toolbox           |
|  \\    /   O peration     | Version:  2306                                  |
|   \\  /    A nd           | Website:  www.openfoam.com                      |
|    \\/     M anipulation  |                                                 |
\*---------------------------------------------------------------------------*/
FoamFile
{
    version     2.0;
    format      ascii;
    arch        "LSB;label=32;scalar=64";
    class       volVectorField;
    location    "7e-05";
    object      U;
}
// * * * * * * * * * * * * * * * * * * * * * * * * * * * * * * * * * * * * * //

dimensions      [0 1 -1 0 0 0 0];

internalField   nonuniform List<vector> 
8983
(
(580 1.07629e-13 0)
(580 1.15148e-13 0)
(580 9.14865e-14 0)
(580 1.92458e-13 0)
(580 2.52352e-13 0)
(580 2.60688e-13 0)
(580 3.03536e-13 0)
(580 2.76165e-13 0)
(580 2.58026e-13 0)
(580 3.54797e-13 0)
(580 4.53452e-13 0)
(580 4.15977e-13 0)
(580 3.88016e-13 0)
(580 3.93034e-13 0)
(580 2.80113e-13 0)
(580 2.96004e-13 0)
(580 4.2029e-13 0)
(580 5.18823e-13 0)
(580 4.61791e-13 0)
(580 4.08897e-13 0)
(580 4.20164e-13 0)
(580 5.09745e-13 0)
(580 4.7811e-13 0)
(580 3.77508e-13 0)
(580 3.51991e-13 0)
(580 3.51952e-13 0)
(580 3.77666e-13 0)
(580 3.12507e-13 0)
(580 2.23378e-13 0)
(580 2.10286e-13 0)
(580 2.39305e-13 0)
(580 2.35947e-13 0)
(580 2.85279e-13 0)
(580 5.07409e-13 0)
(580 5.69369e-13 0)
(580 6.79213e-13 0)
(580 6.64653e-13 0)
(580 7.17965e-13 0)
(580 7.77049e-13 0)
(580 8.25439e-13 0)
(580 7.63572e-13 0)
(580 8.74046e-13 0)
(580 1.11337e-12 0)
(580 1.62934e-13 0)
(580 1.73659e-13 0)
(580 1.96219e-13 0)
(580 1.4427e-13 0)
(580 1.23436e-14 0)
(580 -8.29982e-14 0)
(580 1.25269e-14 0)
(580 7.37069e-14 0)
(580 9.25327e-14 0)
(580 -1.13574e-13 0)
(580 -1.36556e-13 0)
(580 -1.08257e-13 0)
(580 -1.08472e-13 0)
(580 -1.26584e-13 0)
(580 -1.85898e-13 0)
(580 -8.25032e-14 0)
(580 -2.36369e-14 0)
(580 4.42765e-14 0)
(580 -7.33026e-15 0)
(580 -4.82697e-15 0)
(580 -2.04585e-14 0)
(580 2.68182e-14 0)
(580 8.32105e-14 0)
(580 1.8585e-13 0)
(580 2.9289e-13 0)
(580 3.12729e-13 0)
(580 2.94709e-13 0)
(580 1.9798e-13 0)
(580 2.51183e-13 0)
(580 5.34698e-13 0)
(580 1.04542e-12 0)
(580 1.13039e-12 0)
(580 1.18366e-12 0)
(580 1.23816e-12 0)
(580 1.24605e-12 0)
(580 1.20659e-12 0)
(580 1.18544e-12 0)
(580 1.17347e-12 0)
(580 1.13394e-12 0)
(580 1.19109e-12 0)
(580 1.20839e-12 0)
(580 1.22142e-12 0)
(580 1.25111e-12 0)
(580 1.25591e-12 0)
(580 1.38607e-12 0)
(580 1.50411e-12 0)
(580 1.54008e-12 0)
(580 1.61932e-12 0)
(580 1.75144e-12 0)
(580 1.90035e-12 0)
(580 1.91044e-12 0)
(580 1.91758e-12 0)
(580 2.0108e-12 0)
(580 2.21873e-12 0)
(580 2.3332e-12 0)
(580 2.33261e-12 0)
(580 2.2905e-12 0)
(580 2.36775e-12 0)
(580 2.42961e-12 0)
(580 2.4816e-12 0)
(580 2.51129e-12 0)
(580 2.58612e-12 0)
(580 2.5264e-12 0)
(580 2.60105e-12 0)
(580 2.77526e-12 0)
(580 2.78399e-12 0)
(580 2.88681e-12 0)
(580 2.6651e-12 0)
(580 2.66638e-12 0)
(580 2.67258e-12 0)
(580 2.80322e-12 0)
(580 2.68519e-12 0)
(580 2.64763e-12 0)
(580 2.47525e-12 0)
(580 2.49797e-12 0)
(580 2.6694e-12 0)
(580 2.80933e-12 0)
(580 3.10848e-12 0)
(580 3.16502e-12 0)
(580 3.43394e-12 0)
(580 -8.37025e-14 0)
(580 -1.26737e-13 0)
(580 -9.77825e-14 0)
(580 -1.10222e-13 0)
(580 -7.75191e-14 0)
(580 -9.11918e-14 0)
(580 -2.20168e-13 0)
(580 -2.94983e-13 0)
(580 -2.40959e-13 0)
(580 -3.42883e-13 0)
(580 -4.42105e-13 0)
(580 -4.41603e-13 0)
(580 -3.98285e-13 0)
(580 -2.99587e-13 0)
(580 -2.6392e-13 0)
(580 -2.20154e-13 0)
(580 -1.52479e-13 0)
(580 -9.90063e-14 0)
(580 -1.21379e-14 0)
(580 4.2282e-14 0)
(580 2.31549e-14 0)
(580 7.40773e-14 0)
(580 1.56961e-14 0)
(580 2.70416e-14 0)
(580 5.64002e-14 0)
(580 7.17219e-14 0)
(580 1.95907e-13 0)
(580 3.47514e-13 0)
(580 6.21767e-13 0)
(580 1.01562e-12 0)
(580 1.36725e-12 0)
(580 1.58998e-12 0)
(580 1.82251e-12 0)
(580 1.83563e-12 0)
(580 1.8697e-12 0)
(580 1.8415e-12 0)
(580 2.04824e-12 0)
(580 2.35119e-12 0)
(580 2.24696e-12 0)
(580 2.23457e-12 0)
(580 2.28872e-12 0)
(580 2.19213e-12 0)
(580 2.05848e-12 0)
(580 2.03956e-12 0)
(580 2.05369e-12 0)
(580 2.13946e-12 0)
(580 2.14696e-12 0)
(580 2.16071e-12 0)
(580 2.24464e-12 0)
(580 2.42437e-12 0)
(580 2.39183e-12 0)
(580 2.39588e-12 0)
(580 2.31157e-12 0)
(580 2.04686e-12 0)
(580 2.00391e-12 0)
(580 1.90063e-12 0)
(580 2.00384e-12 0)
(580 2.02124e-12 0)
(580 1.94261e-12 0)
(580 1.99992e-12 0)
(580 2.01292e-12 0)
(580 1.96528e-12 0)
(580 2.00277e-12 0)
(580 2.30924e-12 0)
(580 2.49965e-12 0)
(580 2.6196e-12 0)
(580 2.48165e-12 0)
(580 1.98335e-12 0)
(580 1.96488e-12 0)
(580 2.06393e-12 0)
(580 2.23784e-12 0)
(580 2.33774e-12 0)
(580 2.25075e-12 0)
(580 2.22697e-12 0)
(580 2.31963e-12 0)
(580 2.38572e-12 0)
(580 2.43063e-12 0)
(580 2.30152e-12 0)
(580 2.17759e-12 0)
(580 2.24626e-12 0)
(580 -1.03778e-13 0)
(580 -1.52974e-13 0)
(580 -2.36707e-13 0)
(580 -1.66012e-13 0)
(580 -1.18894e-13 0)
(580 -1.43718e-13 0)
(580 -2.37895e-13 0)
(580 -5.26787e-13 0)
(580 -5.60645e-13 0)
(580 -4.69963e-13 0)
(580 -5.53258e-13 0)
(580 -6.04272e-13 0)
(580 -5.61965e-13 0)
(580 -3.74975e-13 0)
(580 -2.42574e-13 0)
(580 -2.4073e-13 0)
(580 -1.21386e-13 0)
(580 -3.66638e-14 0)
(580 -7.62616e-14 0)
(580 2.69542e-13 0)
(580 5.32441e-13 0)
(580 5.49749e-13 0)
(580 4.14276e-13 0)
(580 2.77505e-13 0)
(580 2.38827e-13 0)
(580 2.51374e-13 0)
(580 3.58146e-13 0)
(580 6.70333e-13 0)
(580 8.68109e-13 0)
(580 1.08366e-12 0)
(580 1.22384e-12 0)
(580 1.24331e-12 0)
(580 1.63102e-12 0)
(580 1.92395e-12 0)
(580 2.11507e-12 0)
(580 2.17655e-12 0)
(580 2.22518e-12 0)
(580 2.29367e-12 0)
(580 2.47252e-12 0)
(580 2.59216e-12 0)
(580 2.93862e-12 0)
(580 3.37604e-12 0)
(580 3.51183e-12 0)
(580 3.39339e-12 0)
(580 2.93527e-12 0)
(580 2.66367e-12 0)
(580 2.05758e-12 0)
(580 1.5949e-12 0)
(580 1.46904e-12 0)
(580 1.3642e-12 0)
(580 1.0666e-12 0)
(580 9.55012e-13 0)
(580 9.23243e-13 0)
(580 1.03812e-12 0)
(580 1.14571e-12 0)
(580 1.20935e-12 0)
(580 1.41065e-12 0)
(580 1.48478e-12 0)
(580 1.47735e-12 0)
(580 1.14066e-12 0)
(580 8.87979e-13 0)
(580 6.64207e-13 0)
(580 5.29059e-13 0)
(580 4.62026e-13 0)
(580 2.93641e-13 0)
(580 6.6791e-14 0)
(580 3.12155e-14 0)
(580 6.34363e-14 0)
(580 2.09628e-13 0)
(580 4.01543e-13 0)
(580 7.76202e-13 0)
(580 8.9076e-13 0)
(580 8.76532e-13 0)
(580 9.18074e-13 0)
(580 1.11975e-12 0)
(580 1.22442e-12 0)
(580 1.14903e-12 0)
(580 1.01521e-12 0)
(580 9.55125e-13 0)
(580 1.04647e-12 0)
(580 -2.76557e-14 0)
(580 4.07788e-14 0)
(580 8.8611e-14 0)
(580 -7.88641e-14 0)
(580 -1.36068e-13 0)
(580 -1.1316e-13 0)
(580 -1.05417e-13 0)
(580 -5.223e-14 0)
(580 -1.25005e-13 0)
(580 -2.99709e-14 0)
(580 -1.50182e-14 0)
(580 -1.00862e-13 0)
(580 -1.34962e-13 0)
(580 -2.36135e-13 0)
(580 -2.51528e-13 0)
(580 -2.20273e-13 0)
(580 -7.3477e-14 0)
(580 9.92824e-14 0)
(580 2.15035e-13 0)
(580 4.24049e-13 0)
(580 5.87284e-13 0)
(580 4.04167e-13 0)
(580 2.17926e-13 0)
(580 2.47883e-13 0)
(580 3.29078e-13 0)
(580 3.21177e-13 0)
(580 3.92794e-13 0)
(580 4.67521e-13 0)
(580 5.01182e-13 0)
(580 5.68595e-13 0)
(580 7.01974e-13 0)
(580 9.64916e-13 0)
(580 1.38276e-12 0)
(580 1.89671e-12 0)
(580 2.01512e-12 0)
(580 2.05907e-12 0)
(580 2.18819e-12 0)
(580 2.37e-12 0)
(580 2.51867e-12 0)
(580 2.6348e-12 0)
(580 3.01351e-12 0)
(580 3.63329e-12 0)
(580 3.75871e-12 0)
(580 3.5929e-12 0)
(580 3.18162e-12 0)
(580 3.11124e-12 0)
(580 3.11738e-12 0)
(580 3.02114e-12 0)
(580 2.74667e-12 0)
(580 2.56543e-12 0)
(580 2.04073e-12 0)
(580 1.82541e-12 0)
(580 1.58431e-12 0)
(580 1.62072e-12 0)
(580 1.50139e-12 0)
(580 1.5439e-12 0)
(580 1.1066e-12 0)
(580 7.97684e-13 0)
(580 6.27783e-13 0)
(580 3.71412e-13 0)
(580 9.46161e-14 0)
(580 -9.62871e-14 0)
(580 -2.42376e-13 0)
(580 -4.07194e-13 0)
(580 -8.29492e-13 0)
(580 -1.13455e-12 0)
(580 -9.74159e-13 0)
(580 -4.31598e-13 0)
(580 -2.90935e-13 0)
(580 6.44367e-14 0)
(580 1.93388e-13 0)
(580 6.85201e-13 0)
(580 8.58769e-13 0)
(580 8.94529e-13 0)
(580 1.04654e-12 0)
(580 1.21567e-12 0)
(580 1.24006e-12 0)
(580 1.20121e-12 0)
(580 1.02783e-12 0)
(580 8.01207e-13 0)
(580 -5.8545e-14 0)
(580 -2.70888e-14 0)
(580 3.57823e-14 0)
(580 -8.99641e-14 0)
(580 -1.01833e-13 0)
(580 -1.70524e-14 0)
(580 1.17345e-13 0)
(580 1.93799e-13 0)
(580 1.64604e-13 0)
(580 1.23572e-13 0)
(580 2.33701e-13 0)
(580 2.88645e-13 0)
(580 2.99727e-13 0)
(580 1.19401e-13 0)
(580 -2.35788e-14 0)
(580 -7.2587e-14 0)
(580 -1.12237e-13 0)
(580 -1.55891e-13 0)
(580 -9.41581e-14 0)
(580 -9.53014e-14 0)
(580 -2.72201e-13 0)
(580 -3.5458e-13 0)
(580 -3.72925e-13 0)
(580 -4.71958e-13 0)
(580 -4.53033e-13 0)
(580 -3.12857e-13 0)
(580 5.64278e-14 0)
(580 3.21205e-13 0)
(580 4.80032e-13 0)
(580 5.83733e-13 0)
(580 6.08578e-13 0)
(580 8.55795e-13 0)
(580 9.61516e-13 0)
(580 1.07195e-12 0)
(580 1.17036e-12 0)
(580 1.09926e-12 0)
(580 1.19246e-12 0)
(580 1.35773e-12 0)
(580 1.71768e-12 0)
(580 1.89608e-12 0)
(580 2.1787e-12 0)
(580 2.47629e-12 0)
(580 2.26843e-12 0)
(580 2.15598e-12 0)
(580 2.32749e-12 0)
(580 2.43903e-12 0)
(580 2.82175e-12 0)
(580 3.04849e-12 0)
(580 3.2269e-12 0)
(580 3.49902e-12 0)
(580 3.84766e-12 0)
(580 3.92972e-12 0)
(580 3.38982e-12 0)
(580 2.33186e-12 0)
(580 1.55943e-12 0)
(580 6.9877e-13 0)
(580 7.68359e-15 0)
(580 -5.99514e-13 0)
(580 -7.1458e-13 0)
(580 -6.06721e-13 0)
(580 -4.15047e-13 0)
(580 -3.72166e-13 0)
(580 -3.25835e-13 0)
(580 -4.2677e-13 0)
(580 -5.51493e-13 0)
(580 -5.60087e-13 0)
(580 -7.58622e-13 0)
(580 -1.12517e-12 0)
(580 -1.28762e-12 0)
(580 -8.12702e-13 0)
(580 -3.9761e-13 0)
(580 7.63743e-14 0)
(580 8.62577e-13 0)
(580 1.3254e-12 0)
(580 1.41632e-12 0)
(580 1.52066e-12 0)
(580 1.74492e-12 0)
(580 2.15445e-12 0)
(580 1.15323e-12 0)
(580 7.5124e-13 0)
(580 7.03649e-14 0)
(580 4.29304e-14 0)
(580 -2.24094e-14 0)
(580 8.46363e-14 0)
(580 1.15961e-13 0)
(580 1.02689e-13 0)
(580 1.47921e-13 0)
(580 1.57679e-13 0)
(580 9.69052e-14 0)
(580 -2.19859e-14 0)
(580 -8.38646e-14 0)
(580 -1.17843e-13 0)
(580 -1.50319e-13 0)
(580 -1.13657e-13 0)
(580 -1.10382e-13 0)
(580 -1.86024e-13 0)
(580 -2.87866e-13 0)
(580 -3.40879e-13 0)
(580 -3.87366e-13 0)
(580 -6.11869e-13 0)
(580 -7.65331e-13 0)
(580 -9.40483e-13 0)
(580 -8.93254e-13 0)
(580 -9.84414e-13 0)
(580 -1.23862e-12 0)
(580 -9.64788e-13 0)
(580 -4.55445e-13 0)
(580 4.06856e-14 0)
(580 5.09348e-13 0)
(580 8.15651e-13 0)
(580 8.63222e-13 0)
(580 9.9772e-13 0)
(580 1.10244e-12 0)
(580 9.60853e-13 0)
(580 8.41387e-13 0)
(580 5.64819e-13 0)
(580 4.17847e-13 0)
(580 4.85202e-13 0)
(580 5.17662e-13 0)
(580 8.28961e-13 0)
(580 8.94002e-13 0)
(580 7.96214e-13 0)
(580 5.38093e-13 0)
(580 9.05738e-13 0)
(580 1.10433e-12 0)
(580 1.16455e-12 0)
(580 1.10145e-12 0)
(580 1.24323e-12 0)
(580 1.43832e-12 0)
(580 2.15432e-12 0)
(580 2.43644e-12 0)
(580 2.59999e-12 0)
(580 2.88404e-12 0)
(580 2.83547e-12 0)
(580 2.56617e-12 0)
(580 2.18172e-12 0)
(580 2.00049e-12 0)
(580 1.60012e-12 0)
(580 1.14513e-12 0)
(580 5.67861e-13 0)
(580 1.79508e-13 0)
(580 -3.95518e-13 0)
(580 -5.67793e-13 0)
(580 -7.9128e-13 0)
(580 -1.06126e-12 0)
(580 -8.51887e-13 0)
(580 -9.6598e-13 0)
(580 -1.46907e-12 0)
(580 -1.48865e-12 0)
(580 -1.06539e-12 0)
(580 -5.20687e-13 0)
(580 -1.68205e-13 0)
(580 -5.03185e-14 0)
(580 4.92694e-13 0)
(580 1.16225e-12 0)
(580 9.96063e-13 0)
(580 6.03945e-13 0)
(580 5.20859e-13 0)
(580 7.97749e-14 0)
(580 4.47493e-13 0)
(580 8.0912e-14 0)
(580 1.29409e-13 0)
(580 1.70511e-13 0)
(580 2.36943e-13 0)
(580 2.74751e-13 0)
(580 3.86826e-13 0)
(580 2.63402e-13 0)
(580 1.56413e-13 0)
(580 5.1535e-14 0)
(580 1.13026e-16 0)
(580 -1.55077e-13 0)
(580 -3.02823e-13 0)
(580 -4.44079e-13 0)
(580 -4.38824e-13 0)
(580 -3.93985e-13 0)
(580 -2.13419e-13 0)
(580 -4.7494e-13 0)
(580 -6.09104e-13 0)
(580 -7.8686e-13 0)
(580 -8.64603e-13 0)
(580 -1.02654e-12 0)
(580 -1.24537e-12 0)
(580 -1.3012e-12 0)
(580 -1.06091e-12 0)
(580 -9.11606e-13 0)
(580 -9.28264e-13 0)
(580 -4.83621e-13 0)
(580 -3.83767e-13 0)
(580 -2.18375e-13 0)
(580 -7.25043e-14 0)
(580 3.37947e-13 0)
(580 5.78972e-13 0)
(580 6.58462e-13 0)
(580 2.74184e-13 0)
(580 8.23503e-14 0)
(580 2.00406e-14 0)
(580 -5.38526e-14 0)
(580 -1.0575e-13 0)
(580 -3.09084e-13 0)
(580 -2.6454e-13 0)
(580 -4.18265e-13 0)
(580 -5.3732e-13 0)
(580 -4.0128e-13 0)
(580 5.3144e-13 0)
(580 7.41499e-13 0)
(580 6.73917e-13 0)
(580 6.73866e-13 0)
(580 7.38965e-13 0)
(580 1.00107e-12 0)
(580 1.09612e-12 0)
(580 9.04333e-13 0)
(580 1.3837e-12 0)
(580 2.20391e-12 0)
(580 2.3077e-12 0)
(580 1.81758e-12 0)
(580 1.61603e-12 0)
(580 1.5866e-12 0)
(580 1.64117e-12 0)
(580 1.45008e-12 0)
(580 9.20931e-13 0)
(580 6.47135e-13 0)
(580 9.52511e-14 0)
(580 -3.95115e-13 0)
(580 -1.03728e-12 0)
(580 -1.2305e-12 0)
(580 -1.32414e-12 0)
(580 -9.37414e-13 0)
(580 -6.92539e-13 0)
(580 -6.04241e-13 0)
(580 -3.14653e-13 0)
(580 -6.70785e-14 0)
(580 -6.04804e-14 0)
(580 -2.21408e-13 0)
(580 3.44359e-13 0)
(580 7.89906e-13 0)
(580 2.06244e-13 0)
(580 1.75439e-13 0)
(580 3.1134e-13 0)
(580 -3.09741e-13 0)
(580 -7.79656e-13 0)
(580 -3.90143e-14 0)
(580 4.70108e-14 0)
(580 2.89713e-14 0)
(580 -1.33656e-14 0)
(580 4.59238e-14 0)
(580 4.67329e-14 0)
(580 -5.15209e-15 0)
(580 -1.2841e-15 0)
(580 1.77837e-13 0)
(580 1.65178e-13 0)
(580 7.95371e-14 0)
(580 -6.01737e-14 0)
(580 -2.5768e-13 0)
(580 -4.27347e-13 0)
(580 -4.83761e-13 0)
(580 -5.83787e-13 0)
(580 -7.0238e-13 0)
(580 -8.0148e-13 0)
(580 -8.27329e-13 0)
(580 -6.94775e-13 0)
(580 -5.48419e-13 0)
(580 -5.19695e-13 0)
(580 -6.0033e-13 0)
(580 -1.14439e-13 0)
(580 2.79165e-13 0)
(580 4.41118e-13 0)
(580 3.36895e-13 0)
(580 2.07585e-13 0)
(580 1.11723e-13 0)
(580 -1.6516e-13 0)
(580 -6.39674e-13 0)
(580 -6.49966e-13 0)
(580 -7.11631e-13 0)
(580 -9.96125e-13 0)
(580 -1.14181e-12 0)
(580 -1.22834e-12 0)
(580 -1.35779e-12 0)
(580 -1.57082e-12 0)
(580 -1.75297e-12 0)
(580 -1.90788e-12 0)
(580 -1.90593e-12 0)
(580 -1.657e-12 0)
(580 -1.38972e-12 0)
(580 -1.46718e-12 0)
(580 -1.31405e-12 0)
(580 -8.01833e-13 0)
(580 -1.27542e-13 0)
(580 -2.36191e-13 0)
(580 -2.78058e-13 0)
(580 -3.40822e-13 0)
(580 -6.44247e-13 0)
(580 -5.59783e-13 0)
(580 -3.32842e-13 0)
(580 -2.86361e-13 0)
(580 3.60527e-13 0)
(580 5.0011e-13 0)
(580 7.82492e-13 0)
(580 1.05322e-12 0)
(580 1.38193e-12 0)
(580 1.41898e-12 0)
(580 1.37993e-12 0)
(580 9.41922e-13 0)
(580 6.65764e-13 0)
(580 6.5927e-13 0)
(580 8.73081e-13 0)
(580 2.71612e-14 0)
(580 -1.74833e-13 0)
(580 8.1986e-14 0)
(580 3.32006e-13 0)
(580 4.0081e-13 0)
(580 4.53012e-13 0)
(580 4.42522e-13 0)
(580 2.16269e-13 0)
(580 -5.73965e-14 0)
(580 -1.97858e-13 0)
(580 -6.8283e-13 0)
(580 -7.64055e-13 0)
(580 -8.30991e-13 0)
(580 -1.10828e-12 0)
(580 -1.33876e-12 0)
(580 -8.62754e-15 0)
(580 -2.07037e-14 0)
(580 -1.05366e-13 0)
(580 -8.40348e-14 0)
(580 -1.01313e-13 0)
(580 -3.64828e-13 0)
(580 -3.43974e-13 0)
(580 -3.47295e-13 0)
(580 -3.17601e-13 0)
(580 -2.91956e-13 0)
(580 -9.54356e-14 0)
(580 -4.1504e-14 0)
(580 -2.78467e-14 0)
(580 -9.87055e-14 0)
(580 -9.11888e-14 0)
(580 -3.04613e-13 0)
(580 -2.6535e-13 0)
(580 -3.62821e-13 0)
(580 -3.34385e-13 0)
(580 -3.91412e-13 0)
(580 -3.16392e-13 0)
(580 -1.61186e-13 0)
(580 -1.07918e-13 0)
(580 1.81674e-13 0)
(580 6.87515e-13 0)
(580 8.07078e-13 0)
(580 5.97383e-13 0)
(580 1.98867e-13 0)
(580 -2.82503e-13 0)
(580 -7.38085e-13 0)
(580 -1.03433e-12 0)
(580 -1.24765e-12 0)
(580 -1.50264e-12 0)
(580 -1.32958e-12 0)
(580 -1.30336e-12 0)
(580 -1.24119e-12 0)
(580 -1.48582e-12 0)
(580 -1.74091e-12 0)
(580 -1.7385e-12 0)
(580 -1.47218e-12 0)
(580 -1.48098e-12 0)
(580 -1.73292e-12 0)
(580 -1.99303e-12 0)
(580 -2.19165e-12 0)
(580 -2.21435e-12 0)
(580 -2.04827e-12 0)
(580 -1.88215e-12 0)
(580 -2.25973e-12 0)
(580 -2.51403e-12 0)
(580 -2.46227e-12 0)
(580 -2.53296e-12 0)
(580 -2.52765e-12 0)
(580 -2.41134e-12 0)
(580 -1.93584e-12 0)
(580 -1.00847e-12 0)
(580 2.03375e-13 0)
(580 9.8776e-13 0)
(580 1.36876e-12 0)
(580 1.54277e-12 0)
(580 1.49996e-12 0)
(580 1.34182e-12 0)
(580 1.23192e-12 0)
(580 9.88038e-13 0)
(580 1.05837e-12 0)
(580 1.16735e-12 0)
(580 9.60699e-13 0)
(580 6.71643e-13 0)
(580 1.39986e-12 0)
(580 1.02922e-12 0)
(580 7.81865e-13 0)
(580 2.77322e-13 0)
(580 -5.22954e-14 0)
(580 -4.73817e-13 0)
(580 -1.48622e-12 0)
(580 -2.21516e-12 0)
(580 -2.18472e-12 0)
(580 -2.37246e-12 0)
(580 -2.57537e-12 0)
(580 -2.4186e-12 0)
(580 -2.41737e-12 0)
(580 -3.0172e-14 0)
(580 -1.31684e-13 0)
(580 -1.54022e-13 0)
(580 -2.00113e-13 0)
(580 -3.02085e-13 0)
(580 -3.83386e-13 0)
(580 -5.99246e-13 0)
(580 -7.21433e-13 0)
(580 -7.13357e-13 0)
(580 -5.93498e-13 0)
(580 -5.43129e-13 0)
(580 -5.07579e-13 0)
(580 -4.02809e-13 0)
(580 -3.66102e-13 0)
(580 -3.29585e-13 0)
(580 -3.30558e-13 0)
(580 -3.90209e-13 0)
(580 -5.04805e-13 0)
(580 -4.54005e-13 0)
(580 -3.98793e-13 0)
(580 -4.76224e-13 0)
(580 6.60577e-14 0)
(580 5.61198e-13 0)
(580 6.00101e-13 0)
(580 5.98667e-13 0)
(580 5.44043e-13 0)
(580 1.46564e-13 0)
(580 -6.02366e-13 0)
(580 -1.28344e-12 0)
(580 -1.64401e-12 0)
(580 -1.7398e-12 0)
(580 -1.66694e-12 0)
(580 -1.65714e-12 0)
(580 -1.54877e-12 0)
(580 -1.45516e-12 0)
(580 -1.34227e-12 0)
(580 -1.27257e-12 0)
(580 -1.28378e-12 0)
(580 -1.32479e-12 0)
(580 -1.30969e-12 0)
(580 -1.59939e-12 0)
(580 -1.85699e-12 0)
(580 -2.02529e-12 0)
(580 -2.3677e-12 0)
(580 -2.50074e-12 0)
(580 -2.75392e-12 0)
(580 -2.94736e-12 0)
(580 -2.92809e-12 0)
(580 -2.94043e-12 0)
(580 -3.23961e-12 0)
(580 -3.27752e-12 0)
(580 -3.20098e-12 0)
(580 -3.30816e-12 0)
(580 -3.18516e-12 0)
(580 -2.76551e-12 0)
(580 -1.91082e-12 0)
(580 -1.68626e-12 0)
(580 -1.44878e-12 0)
(580 -7.31358e-13 0)
(580 -7.68354e-14 0)
(580 2.3918e-13 0)
(580 3.45288e-13 0)
(580 4.09481e-13 0)
(580 4.16553e-13 0)
(580 2.9373e-13 0)
(580 7.08193e-13 0)
(580 1.23388e-12 0)
(580 1.96492e-12 0)
(580 1.49168e-12 0)
(580 1.15254e-12 0)
(580 4.78287e-13 0)
(580 2.12779e-13 0)
(580 -1.00629e-12 0)
(580 -2.09327e-12 0)
(580 -2.93805e-12 0)
(580 -4.02577e-12 0)
(580 -4.55543e-12 0)
(580 -4.34183e-12 0)
(580 -4.18832e-12 0)
(580 -3.68979e-12 0)
(580 -2.46016e-14 0)
(580 -8.42705e-14 0)
(580 -1.56718e-13 0)
(580 -3.22713e-13 0)
(580 -4.10245e-13 0)
(580 -3.39022e-13 0)
(580 -3.35734e-13 0)
(580 -2.09844e-13 0)
(580 -1.35634e-13 0)
(580 -1.01731e-13 0)
(580 -6.82372e-14 0)
(580 -8.77752e-14 0)
(580 -1.44863e-13 0)
(580 -2.87311e-13 0)
(580 -5.85639e-13 0)
(580 -8.85721e-13 0)
(580 -1.03693e-12 0)
(580 -8.53349e-13 0)
(580 -4.667e-13 0)
(580 1.05778e-13 0)
(580 1.7936e-13 0)
(580 4.15858e-13 0)
(580 4.33706e-13 0)
(580 4.10168e-13 0)
(580 5.35549e-13 0)
(580 5.35789e-13 0)
(580 -6.54794e-14 0)
(580 -3.98438e-13 0)
(580 -1.28177e-12 0)
(580 -1.78924e-12 0)
(580 -2.52867e-12 0)
(580 -2.61709e-12 0)
(580 -2.47078e-12 0)
(580 -2.59056e-12 0)
(580 -2.57066e-12 0)
(580 -2.41293e-12 0)
(580 -1.92821e-12 0)
(580 -1.45359e-12 0)
(580 -1.53728e-12 0)
(580 -1.70595e-12 0)
(580 -1.83957e-12 0)
(580 -1.64857e-12 0)
(580 -1.68633e-12 0)
(580 -1.64408e-12 0)
(580 -1.68204e-12 0)
(580 -1.88899e-12 0)
(580 -2.18061e-12 0)
(580 -2.27576e-12 0)
(580 -2.46551e-12 0)
(580 -2.64535e-12 0)
(580 -2.96619e-12 0)
(580 -3.49682e-12 0)
(580 -3.8254e-12 0)
(580 -3.95736e-12 0)
(580 -3.97658e-12 0)
(580 -3.83544e-12 0)
(580 -3.66586e-12 0)
(580 -3.19874e-12 0)
(580 -2.39416e-12 0)
(580 -2.08321e-12 0)
(580 -1.36412e-12 0)
(580 -5.12324e-13 0)
(580 2.72251e-13 0)
(580 6.58921e-13 0)
(580 6.5467e-13 0)
(580 7.46203e-13 0)
(580 6.28644e-13 0)
(580 5.70945e-13 0)
(580 4.30074e-13 0)
(580 -3.59908e-13 0)
(580 -9.107e-13 0)
(580 -7.90833e-13 0)
(580 -1.05637e-12 0)
(580 -1.45269e-12 0)
(580 -2.15531e-12 0)
(580 -2.88599e-12 0)
(580 -3.61678e-12 0)
(580 -3.6098e-12 0)
(580 -3.41929e-12 0)
(580 -3.08782e-12 0)
(580 5.37598e-14 0)
(580 1.0749e-13 0)
(580 1.98056e-13 0)
(580 3.30363e-13 0)
(580 2.86516e-13 0)
(580 2.49968e-13 0)
(580 2.81481e-13 0)
(580 2.41649e-13 0)
(580 1.59039e-13 0)
(580 2.09097e-13 0)
(580 3.03287e-13 0)
(580 4.52421e-13 0)
(580 1.81933e-13 0)
(580 1.17577e-13 0)
(580 6.64416e-14 0)
(580 1.01733e-13 0)
(580 -6.74408e-14 0)
(580 -2.51081e-13 0)
(580 1.28927e-13 0)
(580 3.64119e-13 0)
(580 6.76092e-13 0)
(580 5.98085e-13 0)
(580 5.30917e-13 0)
(580 1.76564e-13 0)
(580 -1.16423e-13 0)
(580 5.29731e-14 0)
(580 -1.2384e-13 0)
(580 -5.94432e-13 0)
(580 -9.60309e-13 0)
(580 -1.5075e-12 0)
(580 -1.85392e-12 0)
(580 -2.91326e-12 0)
(580 -3.55847e-12 0)
(580 -3.9119e-12 0)
(580 -3.90719e-12 0)
(580 -3.34344e-12 0)
(580 -2.96565e-12 0)
(580 -2.25794e-12 0)
(580 -1.768e-12 0)
(580 -1.947e-12 0)
(580 -1.91267e-12 0)
(580 -1.71392e-12 0)
(580 -1.80234e-12 0)
(580 -1.7007e-12 0)
(580 -1.79652e-12 0)
(580 -1.82517e-12 0)
(580 -2.09987e-12 0)
(580 -2.26132e-12 0)
(580 -2.44458e-12 0)
(580 -2.65833e-12 0)
(580 -2.79405e-12 0)
(580 -3.05219e-12 0)
(580 -2.93647e-12 0)
(580 -3.41613e-12 0)
(580 -4.22454e-12 0)
(580 -4.61314e-12 0)
(580 -4.67722e-12 0)
(580 -4.614e-12 0)
(580 -4.13372e-12 0)
(580 -3.67443e-12 0)
(580 -2.86698e-12 0)
(580 -1.58597e-12 0)
(580 -1.3447e-12 0)
(580 -5.23065e-13 0)
(580 -1.3554e-14 0)
(580 -1.17531e-14 0)
(580 -4.18221e-13 0)
(580 -1.25663e-12 0)
(580 -2.42457e-12 0)
(580 -3.2686e-12 0)
(580 -3.46901e-12 0)
(580 -3.33899e-12 0)
(580 -3.25533e-12 0)
(580 -3.12037e-12 0)
(580 -2.90806e-12 0)
(580 -2.8119e-12 0)
(580 -3.05068e-12 0)
(580 -3.16477e-12 0)
(580 -2.73224e-12 0)
(580 -2.66957e-12 0)
(580 1.84762e-15 0)
(580 5.64915e-14 0)
(580 1.71546e-13 0)
(580 3.71128e-13 0)
(580 5.34996e-13 0)
(580 5.29631e-13 0)
(580 4.80484e-13 0)
(580 3.67118e-13 0)
(580 1.77666e-13 0)
(580 1.09701e-13 0)
(580 3.23095e-14 0)
(580 -1.10276e-13 0)
(580 -1.43413e-13 0)
(580 -7.73132e-14 0)
(580 1.17528e-13 0)
(580 2.56201e-13 0)
(580 3.78849e-13 0)
(580 7.42674e-13 0)
(580 5.59002e-13 0)
(580 4.43959e-13 0)
(580 3.67473e-13 0)
(580 1.01268e-13 0)
(580 -1.87946e-13 0)
(580 -2.00934e-13 0)
(580 -7.08719e-13 0)
(580 -9.50535e-13 0)
(580 -9.28676e-13 0)
(580 -9.23371e-13 0)
(580 -9.28757e-13 0)
(580 -1.02835e-12 0)
(580 -1.13839e-12 0)
(580 -1.98066e-12 0)
(580 -2.60015e-12 0)
(580 -2.90557e-12 0)
(580 -3.09695e-12 0)
(580 -2.93516e-12 0)
(580 -2.90353e-12 0)
(580 -2.83655e-12 0)
(580 -2.58953e-12 0)
(580 -2.65048e-12 0)
(580 -2.61783e-12 0)
(580 -2.49949e-12 0)
(580 -2.36634e-12 0)
(580 -2.29908e-12 0)
(580 -2.57034e-12 0)
(580 -2.67894e-12 0)
(580 -2.56605e-12 0)
(580 -2.48573e-12 0)
(580 -2.54349e-12 0)
(580 -2.54124e-12 0)
(580 -2.62461e-12 0)
(580 -2.77738e-12 0)
(580 -2.99507e-12 0)
(580 -3.17248e-12 0)
(580 -3.39443e-12 0)
(580 -3.81408e-12 0)
(580 -4.63062e-12 0)
(580 -4.66893e-12 0)
(580 -4.50583e-12 0)
(580 -4.22184e-12 0)
(580 -3.98364e-12 0)
(580 -3.50409e-12 0)
(580 -3.60839e-12 0)
(580 -3.2242e-12 0)
(580 -2.4337e-12 0)
(580 -2.01184e-12 0)
(580 -2.16833e-12 0)
(580 -2.32273e-12 0)
(580 -2.91177e-12 0)
(580 -3.46547e-12 0)
(580 -4.40727e-12 0)
(580 -4.59603e-12 0)
(580 -4.92427e-12 0)
(580 -4.63051e-12 0)
(580 -4.14981e-12 0)
(580 -3.56342e-12 0)
(580 -3.18531e-12 0)
(580 -2.9327e-12 0)
(580 -2.6269e-12 0)
(580 -2.30275e-12 0)
(580 1.50893e-14 0)
(580 1.91768e-14 0)
(580 -9.29909e-14 0)
(580 -1.771e-13 0)
(580 -1.59528e-13 0)
(580 -2.23037e-13 0)
(580 -1.79557e-13 0)
(580 -1.45618e-13 0)
(580 -1.16655e-13 0)
(580 -3.04973e-13 0)
(580 -4.85323e-13 0)
(580 -5.04703e-13 0)
(580 -2.73974e-13 0)
(580 -4.51189e-14 0)
(580 2.17106e-13 0)
(580 3.91059e-13 0)
(580 4.51406e-13 0)
(580 4.75839e-13 0)
(580 2.85474e-13 0)
(580 -2.86664e-13 0)
(580 -6.94162e-13 0)
(580 -1.088e-12 0)
(580 -1.2823e-12 0)
(580 -1.56156e-12 0)
(580 -1.50635e-12 0)
(580 -1.98372e-12 0)
(580 -2.31366e-12 0)
(580 -2.12253e-12 0)
(580 -1.75996e-12 0)
(580 -1.56781e-12 0)
(580 -1.48691e-12 0)
(580 -1.46029e-12 0)
(580 -1.56252e-12 0)
(580 -1.30228e-12 0)
(580 -1.17972e-12 0)
(580 -1.70227e-12 0)
(580 -2.16178e-12 0)
(580 -2.37971e-12 0)
(580 -3.00482e-12 0)
(580 -3.36078e-12 0)
(580 -3.29984e-12 0)
(580 -3.44612e-12 0)
(580 -3.21785e-12 0)
(580 -3.17993e-12 0)
(580 -2.86761e-12 0)
(580 -3.03885e-12 0)
(580 -3.00152e-12 0)
(580 -2.89422e-12 0)
(580 -3.19685e-12 0)
(580 -3.32547e-12 0)
(580 -3.24003e-12 0)
(580 -3.26386e-12 0)
(580 -3.32601e-12 0)
(580 -3.42852e-12 0)
(580 -3.08143e-12 0)
(580 -2.80851e-12 0)
(580 -3.22561e-12 0)
(580 -3.366e-12 0)
(580 -4.14414e-12 0)
(580 -4.42263e-12 0)
(580 -4.7594e-12 0)
(580 -4.88335e-12 0)
(580 -4.78763e-12 0)
(580 -4.31698e-12 0)
(580 -4.10132e-12 0)
(580 -4.25598e-12 0)
(580 -4.0023e-12 0)
(580 -3.75815e-12 0)
(580 -3.59352e-12 0)
(580 -3.63154e-12 0)
(580 -4.03679e-12 0)
(580 -4.32115e-12 0)
(580 -3.8286e-12 0)
(580 -3.53793e-12 0)
(580 -3.06081e-12 0)
(580 -2.50338e-12 0)
(580 -1.81123e-12 0)
(580 -1.71996e-12 0)
(580 -1.72416e-12 0)
(580 -1.72235e-12 0)
(580 4.75743e-14 0)
(580 1.20432e-13 0)
(580 -2.58852e-14 0)
(580 -1.76755e-13 0)
(580 -3.32154e-13 0)
(580 -4.15685e-13 0)
(580 -4.56757e-13 0)
(580 -3.4641e-13 0)
(580 -3.64882e-13 0)
(580 -3.73038e-13 0)
(580 -2.94929e-13 0)
(580 -2.51121e-13 0)
(580 -2.35641e-13 0)
(580 -2.08393e-13 0)
(580 -2.58021e-13 0)
(580 -2.18384e-13 0)
(580 -2.38163e-13 0)
(580 -4.46832e-13 0)
(580 -9.91717e-13 0)
(580 -1.42635e-12 0)
(580 -1.72808e-12 0)
(580 -1.93411e-12 0)
(580 -2.32375e-12 0)
(580 -2.81201e-12 0)
(580 -2.85774e-12 0)
(580 -3.08637e-12 0)
(580 -3.00537e-12 0)
(580 -2.71211e-12 0)
(580 -2.44901e-12 0)
(580 -2.02783e-12 0)
(580 -1.47147e-12 0)
(580 -8.16169e-13 0)
(580 -6.58314e-13 0)
(580 -8.54983e-13 0)
(580 -1.07249e-12 0)
(580 -1.39472e-12 0)
(580 -1.8744e-12 0)
(580 -2.58127e-12 0)
(580 -3.45387e-12 0)
(580 -3.86389e-12 0)
(580 -3.96124e-12 0)
(580 -4.14369e-12 0)
(580 -4.46779e-12 0)
(580 -4.5782e-12 0)
(580 -4.22314e-12 0)
(580 -4.3168e-12 0)
(580 -4.56845e-12 0)
(580 -4.30277e-12 0)
(580 -4.18673e-12 0)
(580 -4.16668e-12 0)
(580 -4.08744e-12 0)
(580 -3.67029e-12 0)
(580 -3.53443e-12 0)
(580 -3.22773e-12 0)
(580 -2.77289e-12 0)
(580 -2.57395e-12 0)
(580 -2.56702e-12 0)
(580 -2.77296e-12 0)
(580 -3.56142e-12 0)
(580 -3.94817e-12 0)
(580 -4.21885e-12 0)
(580 -4.74347e-12 0)
(580 -4.98618e-12 0)
(580 -5.33639e-12 0)
(580 -5.56362e-12 0)
(580 -5.68025e-12 0)
(580 -5.39679e-12 0)
(580 -4.6932e-12 0)
(580 -3.93603e-12 0)
(580 -3.08455e-12 0)
(580 -2.9617e-12 0)
(580 -3.08976e-12 0)
(580 -3.1644e-12 0)
(580 -3.2458e-12 0)
(580 -3.16306e-12 0)
(580 -3.01334e-12 0)
(580 -2.61937e-12 0)
(580 -2.22944e-12 0)
(580 -2.13806e-12 0)
(580 -1.89673e-12 0)
(580 -3.00362e-14 0)
(580 -1.56091e-14 0)
(580 -3.44407e-14 0)
(580 -9.12519e-14 0)
(580 -1.35357e-13 0)
(580 -1.07595e-13 0)
(580 -1.34843e-13 0)
(580 -6.8819e-14 0)
(580 -1.37746e-13 0)
(580 -7.24101e-14 0)
(580 -1.94417e-13 0)
(580 -3.48523e-13 0)
(580 -5.08945e-13 0)
(580 -6.38368e-13 0)
(580 -8.43537e-13 0)
(580 -7.26592e-13 0)
(580 -7.61138e-13 0)
(580 -8.30995e-13 0)
(580 -9.85999e-13 0)
(580 -1.03655e-12 0)
(580 -1.22748e-12 0)
(580 -1.30542e-12 0)
(580 -1.61984e-12 0)
(580 -1.86962e-12 0)
(580 -1.92421e-12 0)
(580 -1.86151e-12 0)
(580 -1.81506e-12 0)
(580 -1.82559e-12 0)
(580 -1.64598e-12 0)
(580 -1.59318e-12 0)
(580 -1.52754e-12 0)
(580 -1.44073e-12 0)
(580 -1.41049e-12 0)
(580 -1.54145e-12 0)
(580 -1.57914e-12 0)
(580 -1.82618e-12 0)
(580 -2.01738e-12 0)
(580 -2.20343e-12 0)
(580 -2.55561e-12 0)
(580 -2.70317e-12 0)
(580 -2.71719e-12 0)
(580 -2.95533e-12 0)
(580 -3.33835e-12 0)
(580 -3.75445e-12 0)
(580 -4.45719e-12 0)
(580 -4.54852e-12 0)
(580 -4.47417e-12 0)
(580 -4.37224e-12 0)
(580 -3.90818e-12 0)
(580 -3.16512e-12 0)
(580 -3.07798e-12 0)
(580 -3.23218e-12 0)
(580 -3.1506e-12 0)
(580 -3.04163e-12 0)
(580 -3.02113e-12 0)
(580 -2.91596e-12 0)
(580 -2.8818e-12 0)
(580 -2.74207e-12 0)
(580 -2.61852e-12 0)
(580 -2.57536e-12 0)
(580 -2.73972e-12 0)
(580 -3.08955e-12 0)
(580 -3.27478e-12 0)
(580 -3.40364e-12 0)
(580 -3.69939e-12 0)
(580 -4.07237e-12 0)
(580 -4.58913e-12 0)
(580 -5.09043e-12 0)
(580 -5.25944e-12 0)
(580 -5.12278e-12 0)
(580 -4.43311e-12 0)
(580 -4.44384e-12 0)
(580 -4.22029e-12 0)
(580 -4.27645e-12 0)
(580 -4.28894e-12 0)
(580 -4.33058e-12 0)
(580 -4.38886e-12 0)
(580 -4.41357e-12 0)
(580 -3.79327e-12 0)
(580 -2.85391e-12 0)
(580 -1.51221e-13 0)
(580 -2.88013e-13 0)
(580 -3.22031e-13 0)
(580 -4.84011e-13 0)
(580 -4.74369e-13 0)
(580 -3.68905e-13 0)
(580 -4.35063e-13 0)
(580 -3.39037e-13 0)
(580 -3.23289e-13 0)
(580 -3.31327e-13 0)
(580 -3.68742e-13 0)
(580 -5.67182e-13 0)
(580 -6.31432e-13 0)
(580 -5.99862e-13 0)
(580 -7.53873e-13 0)
(580 -8.83125e-13 0)
(580 -1.23573e-12 0)
(580 -1.23896e-12 0)
(580 -1.08756e-12 0)
(580 -9.72825e-13 0)
(580 -1.01227e-12 0)
(580 -8.84009e-13 0)
(580 -9.57981e-13 0)
(580 -9.05672e-13 0)
(580 -1.12854e-12 0)
(580 -1.14519e-12 0)
(580 -1.19473e-12 0)
(580 -1.2998e-12 0)
(580 -1.3676e-12 0)
(580 -1.44134e-12 0)
(580 -1.66414e-12 0)
(580 -1.84357e-12 0)
(580 -2.16073e-12 0)
(580 -2.13005e-12 0)
(580 -2.12791e-12 0)
(580 -2.04818e-12 0)
(580 -1.96806e-12 0)
(580 -1.87477e-12 0)
(580 -1.90384e-12 0)
(580 -1.88844e-12 0)
(580 -2.03105e-12 0)
(580 -1.88636e-12 0)
(580 -1.90413e-12 0)
(580 -1.94864e-12 0)
(580 -2.27615e-12 0)
(580 -2.45893e-12 0)
(580 -2.53641e-12 0)
(580 -2.63071e-12 0)
(580 -2.63944e-12 0)
(580 -2.50696e-12 0)
(580 -2.46784e-12 0)
(580 -2.64656e-12 0)
(580 -2.61709e-12 0)
(580 -2.62101e-12 0)
(580 -2.67978e-12 0)
(580 -2.7326e-12 0)
(580 -2.87074e-12 0)
(580 -2.79648e-12 0)
(580 -2.66302e-12 0)
(580 -2.72695e-12 0)
(580 -2.85599e-12 0)
(580 -2.84575e-12 0)
(580 -2.8543e-12 0)
(580 -2.84301e-12 0)
(580 -2.82797e-12 0)
(580 -2.77713e-12 0)
(580 -2.86981e-12 0)
(580 -2.98609e-12 0)
(580 -3.10246e-12 0)
(580 -3.14136e-12 0)
(580 -3.1206e-12 0)
(580 -3.11813e-12 0)
(580 -3.22317e-12 0)
(580 -3.35001e-12 0)
(580 -3.52698e-12 0)
(580 -3.57925e-12 0)
(580 -3.82082e-12 0)
(580 -4.1999e-12 0)
(580 -4.63301e-12 0)
(580 -4.49124e-12 0)
(580 3.3369e-14 0)
(580 2.88039e-14 0)
(580 2.14149e-14 0)
(580 2.13493e-14 0)
(580 -3.97773e-14 0)
(580 -1.80999e-13 0)
(580 -2.1154e-13 0)
(580 -2.539e-13 0)
(580 -2.69584e-13 0)
(580 -3.38776e-13 0)
(580 -2.68142e-13 0)
(580 -2.15104e-13 0)
(580 -3.4906e-13 0)
(580 -1.62702e-13 0)
(580 -2.04453e-13 0)
(580 -2.84856e-13 0)