/*--------------------------------*- C++ -*----------------------------------*\
| =========                 |                                                 |
| \\      /  F ield         | OpenFOAM: The Open Source CFD Toolbox           |
|  \\    /   O peration     | Version:  2306                                  |
|   \\  /    A nd           | Website:  www.openfoam.com                      |
|    \\/     M anipulation  |                                                 |
\*---------------------------------------------------------------------------*/
FoamFile
{
    version     2.0;
    format      ascii;
    arch        "LSB;label=32;scalar=64";
    class       volScalarField;
    location    "9e-05";
    object      p;
}
// * * * * * * * * * * * * * * * * * * * * * * * * * * * * * * * * * * * * * //

dimensions      [1 -1 -2 0 0 0 0];

internalField   nonuniform List<scalar> 
9032
(
109633
109583
109576
109599
109637
109644
109605
109579
109599
109629
109649
109657
109650
109619
109571
109544
109545
109560
109596
109643
109676
109694
109682
109659
109654
109664
109675
109686
109692
109682
109658
109619
109576
109547
109526
109517
109524
109547
109565
109577
109574
109567
109578
109598
109620
109639
109646
109640
109634
109632
109637
109658
109687
109708
109721
109722
109698
109655
109610
109585
109594
109641
109741
109923
110225
110673
111134
111617
109574
109503
109517
109574
109613
109603
109557
109552
109582
109644
109699
109707
109678
109622
109573
109563
109571
109585
109590
109596
109600
109601
109609
109628
109648
109662
109669
109671
109673
109669
109657
109637
109612
109575
109532
109504
109492
109504
109536
109560
109574
109585
109598
109615
109627
109630
109627
109618
109611
109608
109610
109623
109647
109670
109683
109684
109670
109645
109625
109618
109627
109674
109785
110002
110365
110871
111363
111772
109495
109526
109582
109601
109584
109538
109476
109466
109486
109537
109606
109626
109610
109572
109544
109541
109560
109605
109626
109623
109599
109569
109568
109587
109614
109640
109652
109657
109655
109646
109633
109619
109599
109570
109536
109505
109490
109490
109506
109530
109558
109582
109598
109607
109611
109610
109603
109592
109584
109581
109583
109591
109603
109616
109625
109629
109633
109638
109643
109650
109668
109711
109832
110085
110491
111012
111477
111796
109523
109589
109601
109595
109582
109559
109531
109511
109510
109537
109574
109579
109551
109516
109489
109465
109459
109477
109501
109511
109513
109527
109547
109573
109603
109632
109652
109663
109666
109656
109641
109622
109599
109567
109532
109505
109491
109492
109504
109525
109551
109572
109585
109589
109588
109584
109575
109564
109556
109552
109549
109550
109554
109560
109569
109581
109600
109624
109651
109680
109714
109770
109912
110207
110657
111174
111590
111825
109563
109699
109687
109625
109576
109556
109544
109530
109520
109526
109541
109527
109491
109452
109421
109398
109389
109407
109444
109484
109526
109567
109599
109620
109640
109663
109683
109691
109689
109668
109642
109616
109587
109559
109529
109504
109491
109491
109499
109513
109530
109546
109556
109557
109558
109557
109552
109546
109541
109536
109529
109524
109524
109528
109538
109556
109582
109617
109660
109706
109753
109837
110018
110357
110841
111339
111688
111835
109793
109855
109777
109666
109604
109595
109634
109639
109608
109563
109543
109524
109495
109464
109436
109418
109411
109431
109465
109500
109540
109585
109621
109642
109660
109680
109696
109702
109699
109679
109642
109605
109571
109542
109522
109506
109494
109488
109492
109502
109514
109528
109542
109549
109555
109558
109558
109554
109549
109541
109531
109525
109522
109523
109530
109545
109571
109607
109656
109721
109805
109939
110166
110548
111044
111487
111748
111834
109810
109820
109726
109599
109507
109513
109591
109650
109666
109639
109598
109560
109535
109523
109513
109501
109487
109486
109493
109503
109526
109560
109608
109653
109677
109688
109691
109687
109677
109650
109606
109564
109535
109514
109503
109507
109508
109503
109500
109499
109504
109517
109531
109542
109553
109559
109561
109558
109553
109544
109533
109525
109518
109516
109520
109533
109556
109591
109643
109721
109834
110018
110316
110757
111262
111641
111802
111824
109835
109826
109697
109511
109365
109411
109514
109584
109631
109622
109609
109584
109552
109550
109562
109586
109604
109603
109589
109567
109560
109572
109602
109648
109675
109677
109668
109655
109640
109618
109587
109544
109515
109501
109500
109517
109530
109527
109519
109514
109511
109514
109527
109546
109561
109569
109573
109569
109559
109545
109533
109526
109518
109513
109515
109523
109539
109567
109617
109703
109848
110080
110448
110945
111446
111762
111856
111837
109319
109758
109730
109535
109340
109381
109472
109567
109651
109656
109656
109605
109535
109528
109552
109605
109638
109643
109628
109593
109582
109589
109613
109649
109665
109658
109642
109628
109616
109600
109570
109535
109513
109509
109516
109536
109551
109552
109542
109533
109530
109532
109547
109569
109582
109590
109591
109581
109563
109543
109530
109526
109521
109516
109516
109522
109534
109557
109602
109692
109859
110138
110573
111115
111590
111835
111890
111858
109170
109835
109739
109476
109250
109358
109444
109620
109723
109734
109688
109572
109485
109481
109514
109578
109613
109625
109609
109571
109563
109574
109596
109627
109627
109613
109592
109577
109567
109554
109543
109527
109517
109525
109546
109572
109588
109585
109566
109547
109542
109546
109565
109590
109602
109609
109607
109593
109570
109546
109531
109526
109523
109517
109512
109515
109526
109551
109601
109698
109883
110209
110702
111276
111704
111878
111909
111878
110047
110282
109947
109409
109304
109359
109440
109653
109734
109750
109676
109544
109471
109470
109509
109575
109607
109612
109585
109555
109556
109565
109593
109599
109579
109553
109529
109523
109536
109541
109536
109532
109533
109551
109576
109601
109613
109607
109585
109561
109553
109556
109576
109606
109623
109630
109627
109611
109587
109562
109542
109532
109529
109525
109521
109523
109537
109566
109620
109721
109922
110283
110823
111410
111776
111889
111910
111892
110389
110784
109661
109334
109408
109326
109456
109615
109709
109730
109650
109553
109517
109524
109578
109629
109648
109639
109595
109578
109577
109582
109603
109584
109552
109517
109498
109502
109518
109533
109544
109553
109564
109582
109599
109610
109609
109591
109554
109528
109521
109529
109557
109595
109616
109625
109623
109610
109590
109568
109546
109532
109532
109541
109544
109547
109560
109589
109645
109755
109977
110383
110952
111525
111813
111885
111905
111899
100047
108882
108920
109671
109533
109360
109424
109551
109640
109640
109590
109574
109564
109594
109650
109673
109673
109646
109608
109583
109571
109570
109563
109543
109527
109513
109507
109512
109520
109537
109557
109577
109597
109614
109625
109623
109608
109574
109523
109494
109488
109498
109530
109569
109594
109609
109614
109608
109596
109580
109561
109545
109548
109561
109563
109559
109568
109600
109662
109793
110055
110509
111094
111622
111833
111879
111896
111896
58556.9
96958.6
108715
110372
109511
109433
109561
109605
109536
109524
109575
109598
109602
109622
109656
109678
109680
109657
109623
109578
109529
109509
109499
109506
109520
109526
109532
109537
109545
109559
109580
109605
109627
109639
109645
109631
109591
109533
109474
109452
109456
109481
109519
109560
109588
109604
109614
109609
109604
109595
109581
109566
109563
109568
109564
109558
109571
109609
109686
109850
110168
110675
111258
111709
111855
111884
111889
111889
33560.3
56466
98777.1
109282
109123
109781
109832
109600
109394
109458
109598
109651
109658
109639
109631
109627
109644
109658
109643
109590
109512
109463
109447
109461
109507
109546
109561
109571
109581
109587
109601
109629
109650
109658
109655
109620
109566
109499
109440
109422
109433
109464
109506
109551
109579
109596
109613
109618
109618
109614
109602
109587
109576
109569
109561
109557
109581
109629
109727
109933
110312
110867
111432
111776
111868
111892
111890
111888
32006.3
33380.8
56967.9
95182.2
109326
110548
110076
109446
109323
109473
109690
109765
109768
109683
109587
109567
109595
109652
109664
109617
109529
109441
109425
109440
109496
109568
109602
109616
109626
109622
109622
109645
109659
109667
109659
109616
109560
109493
109435
109423
109440
109472
109506
109535
109551
109561
109577
109592
109602
109606
109603
109588
109574
109562
109550
109562
109595
109657
109785
110042
110487
111074
111591
111830
111888
111903
111898
111899
32000
32005.2
33361.4
54169.9
97508.5
108996
109525
109294
109312
109539
109755
109877
109908
109787
109562
109483
109517
109602
109659
109631
109576
109491
109440
109456
109504
109590
109648
109667
109679
109663
109645
109657
109662
109669
109656
109613
109564
109507
109455
109445
109464
109488
109513
109529
109530
109532
109547
109573
109593
109604
109604
109590
109570
109554
109541
109565
109611
109693
109858
110174
110683
111279
111716
111866
111911
111922
111916
111913
32000
32000
32005
33076.5
54308.6
94656.7
109665
109706
109516
109659
109679
109898
109957
109825
109557
109371
109394
109460
109583
109617
109594
109554
109492
109498
109535
109612
109690
109714
109723
109697
109664
109660
109656
109664
109648
109610
109572
109528
109484
109478
109494
109507
109520
109525
109518
109515
109531
109560
109585
109598
109598
109584
109560
109548
109545
109572
109625
109728
109937
110318
110881
111462
111796
111889
111932
111942
111937
111921
32000
32000
32000
32003.6
33001.3
53134.3
93391.2
108140
109376
109152
109134
109576
109876
109770
109597
109372
109322
109330
109438
109570
109591
109585
109538
109539
109568
109625
109705
109738
109742
109714
109662
109633
109615
109617
109628
109611
109590
109568
109534
109514
109517
109516
109518
109515
109509
109509
109528
109552
109575
109587
109585
109567
109545
109541
109545
109578
109640
109767
110023
110469
111067
111600
111837
111900
111936
111939
111931
111911
32000
32000
32000
32000
32003.3
32912.1
49325.4
92257.4
110035
108675
108775
109312
109794
109817
109760
109528
109346
109286
109352
109484
109558
109589
109577
109558
109577
109613
109682
109726
109730
109700
109622
109554
109525
109523
109560
109603
109613
109611
109593
109556
109522
109506
109495
109490
109491
109503
109530
109550
109566
109577
109572
109555
109538
109542
109558
109582
109653
109812
110125
110632
111238
111704
111859
111902
111927
111922
111912
111889
32000
32000
32000
32000
32000
32002.6
32543.6
48524.5
91531.6
106209
109344
109990
109883
109876
109896
109803
109580
109403
109381
109454
109550
109594
109602
109567
109565
109592
109647
109695
109698
109669
109591
109499
109458
109449
109485
109564
109632
109649
109637
109586
109515
109475
109459
109459
109475
109499
109533
109560
109564
109568
109563
109552
109540
109543
109569
109603
109692
109886
110252
110810
111402
111777
111872
111897
111911
111901
111888
111866
32000
32000
32000
32000
32000
32000
32001.2
32508.5
46927.4
84641.4
108944
110898
109559
109665
109792
109694
109566
109522
109489
109503
109550
109628
109653
109630
109596
109603
109629
109667
109672
109645
109577
109474
109423
109419
109454
109533
109633
109666
109650
109594
109509
109452
109438
109445
109475
109522
109570
109603
109603
109584
109570
109555
109545
109551
109583
109630
109742
109979
110407
111001
111556
111832
111880
111889
111895
111883
111866
111847
32000
32000
32000
32000
32000
32000
32000
32001.1
32364
43397.5
84453.9
105005
108679
109275
109457
109527
109590
109627
109584
109571
109595
109668
109698
109692
109653
109611
109615
109638
109658
109652
109619
109540
109453
109440
109462
109528
109624
109663
109640
109588
109509
109443
109432
109447
109488
109542
109591
109626
109627
109605
109589
109575
109567
109578
109613
109669
109807
110092
110580
111187
111673
111866
111891
111895
111887
111873
111857
111841
32000
32000
32000
32000
32000
32000
32000
32000
32000.6
32204.6
41908
79046
106237
111152
110238
109224
109526
109566
109498
109495
109567
109643
109691
109684
109644
109582
109559
109576
109610
109633
109639
109623
109571
109535
109550
109577
109619
109649
109624
109578
109522
109473
109460
109478
109512
109558
109604
109639
109647
109632
109623
109617
109611
109625
109657
109722
109891
110228
110766
111355
111744
111872
111896
111901
111892
111882
111866
111847
32000
32000
32000
32000
32000
32000
32000
32000
32000
32000.3
32153.1
39941.9
74486.6
104772
107988
108905
109350
109438
109338
109352
109442
109501
109589
109629
109597
109512
109442
109439
109478
109554
109606
109624
109629
109628
109631
109642
109642
109634
109598
109555
109518
109499
109497
109514
109543
109575
109609
109637
109650
109652
109655
109659
109659
109673
109701
109784
109992
110385
110960
111496
111784
111861
111886
111898
111895
111893
111881
111866
32000
32000
32000
32000
32000
32000
32000
32000
32000
32000
32000.2
32098.6
37285.9
70617.6
100696
110546
110315
109743
109488
109465
109422
109443
109513
109557
109539
109490
109432
109401
109405
109426
109481
109566
109623
109657
109673
109668
109659
109627
109580
109538
109517
109511
109519
109537
109558
109580
109603
109625
109644
109657
109671
109679
109682
109695
109733
109846
110100
110555
111149
111609
111806
111852
111875
111894
111902
111909
111905
111892
32000
32000
32000
32000
32000
32000
32000
32000
32000
32000
32000
32000.1
32046.7
36206.1
63339
101119
109576
109220
109685
109858
109664
109521
109524
109559
109608
109655
109638
109576
109479
109422
109427
109476
109553
109627
109675
109681
109668
109632
109579
109535
109513
109519
109537
109555
109568
109574
109587
109607
109629
109653
109676
109688
109693
109708
109761
109906
110217
110732
111318
111697
111819
111849
111871
111894
111911
111923
111923
111907
32000
32000
32000
32000
32000
32000
32000
32000
32000
32000
32000
32000
32000
32032.2
34473.1
58388
97066.4
107695
110207
110126
109918
109644
109534
109581
109683
109814
109842
109807
109695
109532
109456
109465
109498
109556
109615
109646
109663
109658
109623
109575
109535
109517
109519
109535
109550
109560
109577
109598
109621
109646
109667
109676
109681
109705
109777
109964
110336
110906
111465
111760
111833
111857
111878
111895
111908
111920
111920
111903
32000
32000
32000
32000
32000
32000
32000
32000
32000
32000
32000
32000
32000
32000
32012.2
33489.9
54067.2
91086.7
108545
110024
109902
109728
109514
109373
109424
109673
109851
109853
109768
109620
109511
109498
109506
109531
109563
109592
109629
109669
109667
109644
109597
109542
109517
109518
109526
109547
109577
109603
109628
109648
109660
109669
109674
109706
109806
110043
110480
111063
111566
111793
111844
111870
111884
111895
111904
111909
111907
111893
32000
32000
32000
32000
32000
32000
32000
32000
32000
32000
32000
32000
32000
32000
32000
32006
32911
47803.5
85986.3
107664
109835
109717
109407
109001
108982
109214
109575
109715
109691
109606
109528
109536
109544
109531
109529
109526
109544
109604
109667
109670
109644
109589
109526
109496
109495
109520
109565
109604
109635
109658
109672
109678
109685
109728
109864
110159
110656
111222
111630
111794
111843
111866
111875
111885
111891
111890
111886
111870
32000
32000
32000
32000
32000
32000
32000
32000
32000
32000
32000
32000
32000
32000
32000
32000
32002.6
32405.2
43065.9
81973.3
105341
110167
109583
108996
109028
109203
109476
109605
109542
109463
109455
109485
109539
109549
109516
109491
109489
109514
109578
109639
109640
109606
109540
109484
109468
109483
109522
109589
109642
109670
109689
109700
109706
109768
109946
110302
110842
111366
111674
111781
111824
111847
111857
111866
111869
111865
111858
111841
32000
32000
32000
32000
32000
32000
32000
32000
32000
32000
32000
32000
32000
32000
32000
32000
32000
32000.7
32199.5
40508.1
72442.2
105392
109965
109433
109530
109655
109673
109589
109470
109370
109366
109415
109547
109611
109610
109557
109497
109490
109518
109568
109597
109588
109554
109492
109459
109461
109481
109527
109604
109667
109701
109723
109732
109810
110036
110453
111010
111479
111701
111770
111799
111815
111827
111838
111843
111840
111831
111812
32000
32000
32000
32000
32000
32000
32000
32000
32000
32000
32000
32000
32000
32000
32000
32000
32000
32000
32000.3
32112.2
36796.9
67120.5
98333.3
108712
110090
109950
109829
109698
109512
109407
109369
109423
109588
109692
109717
109704
109631
109557
109527
109540
109572
109582
109574
109543
109493
109462
109468
109501
109556
109631
109692
109731
109758
109854
110125
110592
111135
111537
111710
111761
111781
111791
111801
111813
111820
111820
111809
111790
32000
32000
32000
32000
32000
32000
32000
32000
32000
32000
32000
32000
32000
32000
32000
32000
32000
32000
32000
32000.1
32038.5
34917.9
58009.9
95633.7
108768
109554
109895
109896
109626
109514
109398
109421
109553
109689
109734
109715
109663
109614
109574
109562
109579
109590
109600
109598
109576
109537
109502
109507
109549
109615
109682
109734
109791
109920
110237
110738
111238
111557
111700
111758
111780
111792
111799
111805
111809
111807
111794
111780
32000
32000
32000
32000
32000
32000
32000
32000
32000
32000
32000
32000
32000
32000
32000
32000
32000
32000
32000
32000
32000
32016.3
33462.6
50723.8
89250.3
107076
110410
110043
109632
109436
109369
109363
109385
109432
109524
109594
109611
109607
109591
109570
109580
109591
109607
109616
109603
109588
109571
109557
109577
109611
109672
109745
109842
110035
110397
110907
111343
111578
111691
111756
111787
111805
111815
111814
111809
111802
111791
111784
32000
32000
32000
32000
32000
32000
32000
32000
32000
32000
32000
32000
32000
32000
32000
32000
32000
32000
32000
32000
32000
32000
32005.3
32590.9
45206.6
81865.2
105664
108441
109183
109438
109467
109409
109308
109315
109384
109479
109525
109535
109543
109545
109555
109555
109566
109598
109602
109593
109589
109582
109592
109621
109669
109759
109905
110171
110612
111122
111466
111616
111695
111759
111802
111827
111837
111832
111819
111807
111799
111793
32000
32000
32000
32000
32000
32000
32000
32000
32000
32000
32000
32000
32000
32000
32000
32000
32000
32000
32000
32000
32000
32000
32000
32001.4
32275.5
40181.9
72156.4
101805
110447
110346
110070
109874
109733
109706
109650
109595
109572
109561
109545
109552
109558
109542
109536
109557
109580
109583
109585
109581
109584
109609
109659
109769
109965
110304
110818
111328
111588
111671
111724
111779
111828
111857
111872
111867
111840
111821
111814
111808
32000
32000
32000
32000
32000
32000
32000
32000
32000
32000
32000
32000
32000
32000
32000
32000
32000
32000
32000
32000
32000
32000
32000
32000
32000.4
32102.9
36341.8
62282
98994.4
108465
109584
110056
110047
109982
109884
109753
109656
109623
109611
109625
109613
109586
109558
109557
109568
109562
109553
109545
109549
109573
109636
109784
110035
110439
111001
111472
111655
111710
111755
111803
111849
111881
111899
111897
111869
111842
111830
111820
32000
32000
32000
32000
32000
32000
32000
32000
32000
32000
32000
32000
32000
32000
32000
32000
32000
32000
32000
32000
32000
32000
32000
32000
32000
32000.1
32031.1
34142.8
53953.9
90698.2
106990
110063
110169
109662
109735
109684
109601
109615
109690
109705
109677
109640
109617
109612
109597
109585
109548
109510
109506
109536
109618
109798
110104
110576
111137
111538
111687
111738
111773
111817
111858
111888
111905
111907
111880
111852
111840
111826
32000
32000
32000
32000
32000
32000
32000
32000
32000
32000
32000
32000
32000
32000
32000
32000
32000
32000
32000
32000
32000
32000
32000
32000
32000
32000
32000
32009.7
32837.7
46446.8
82696.4
104366
108552
108961
109502
109555
109540
109525
109570
109596
109605
109597
109612
109633
109632
109612
109560
109501
109490
109532
109635
109845
110206
110727
111252
111561
111675
111717
111762
111821
111863
111888
111899
111893
111871
111855
111844
111829
32000
32000
32000
32000
32000
32000
32000
32000
32000
32000
32000
32000
32000
32000
32000
32000
32000
32000
32000
32000
32000
32000
32000
32000
32000
32000
32000
32000
32002.2
32335.2
40106
71549.9
100874
110292
110477
109965
109547
109452
109439
109423
109410
109441
109517
109584
109598
109578
109535
109478
109479
109537
109659
109911
110318
110873
111369
111602
111679
111705
111743
111802
111851
111883
111899
111892
111870
111855
111841
111820
32000
32000
32000
32000
32000
32000
32000
32000
32000
32000
32000
32000
32000
32000
32000
32000
32000
32000
32000
32000
32000
32000
32000
32000
32000
32000
32000
32000
32000
32000.5
32094.4
36356.2
59671.4
98209.8
107228
108983
109338
109360
109415
109403
109379
109420
109495
109557
109545
109517
109497
109465
109489
109558
109696
109962
110405
110993
111456
111644
111683
111697
111728
111786
111850
111893
111915
111910
111892
111877
111858
111825
32000
32000
32000
32000
32000
32000
32000
32000
32000
32000
32000
32000
32000
32000
32000
32000
32000
32000
32000
32000
32000
32000
32000
32000
32000
32000
32000
32000
32000
32000
32000.1
32033.3
33609.9
51741.9
86070.3
107840
110822
110347
110022
109841
109716
109682
109667
109619
109559
109522
109512
109503
109541
109611
109748
110029
110494
111094
111528
111665
111684
111694
111726
111783
111853
111906
111937
111938
111925
111900
111870
111832
32000
32000
32000
32000
32000
32000
32000
32000
32000
32000
32000
32000
32000
32000
32000
32000
32000
32000
32000
32000
32000
32000
32000
32000
32000
32000
32000
32000
32000
32000
32000
32000
32006.2
32628.6
43118.7
77194.4
102372
108168
109508
109821
109953
109938
109822
109701
109622
109591
109585
109612
109649
109713
109848
110137
110635
111223
111606
111687
111703
111715
111750
111803
111867
111924
111956
111955
111942
111915
111878
111836
32000
32000
32000
32000
32000
32000
32000
32000
32000
32000
32000
32000
32000
32000
32000
32000
32000
32000
32000
32000
32000
32000
32000
32000
32000
32000
32000
32000
32000
32000
32000
32000
32000
32001.4
32187.3
37629.5
64590.2
96871.3
109353
109921
109935
109789
109586
109539
109581
109603
109624
109641
109678
109752
109924
110274
110815
111380
111673
111727
111732
111758
111790
111835
111897
111950
111974
111970
111954
111922
111879
111833
32000
32000
32000
32000
32000
32000
32000
32000
32000
32000
32000
32000
32000
32000
32000
32000
32000
32000
32000
32000
32000
32000
32000
32000
32000
32000
32000
32000
32000
32000
32000
32000
32000
32000
32000.2
32048.5
34428.6
51972.3
90639.2
105983
109135
109188
109013
109213
109480
109539
109558
109560
109588
109681
109921
110383
110985
111500
111689
111733
111753
111788
111828
111872
111926
111965
111984
111978
111960
111927
111878
111829
32000
32000
32000
32000
32000
32000
32000
32000
32000
32000
32000
32000
32000
32000
32000
32000
32000
32000
32000
32000
32000
32000
32000
32000
32000
32000
32000
32000
32000
32000
32000
32000
32000
32000
32000
32000
32011.8
32674.1
44531.5
76587.7
104937
109858
109355
109739
109859
109628
109497
109484
109567
109708
110000
110499
111072
111521
111676
111734
111763
111794
111832
111883
111926
111960
111980
111976
111962
111934
111885
111832
32000
32000
32000
32000
32000
32000
32000
32000
32000
32000
32000
32000
32000
32000
32000
32000
32000
32000
32000
32000
32000
32000
32000
32000
32000
32000
32000
32000
32000
32000
32000
32000
32000
32000
32000
32000
32000
32001.6
32224.3
37910.5
64629.1
96809.7
107923
110958
110489
109721
109429
109523
109701
109919
110205
110668
111171
111530
111705
111768
111801
111822
111833
111872
111902
111934
111957
111959
111955
111938
111897
111844
32000
32000
32000
32000
32000
32000
32000
32000
32000
32000
32000
32000
32000
32000
32000
32000
32000
32000
32000
32000
32000
32000
32000
32000
32000
32000
32000
32000
32000
32000
32000
32000
32000
32000
32000
32000
32000
32000
32000.3
32054.6
34210.6
52621.4
86190.7
108090
109217
108993
109140
109542
109837
110090
110362
110765
111218
111569
111772
111837
111874
111868
111851
111875
111900
111929
111952
111958
111954
111939
111903
111861
32000
32000
32000
32000
32000
32000
32000
32000
32000
32000
32000
32000
32000
32000
32000
32000
32000
32000
32000
32000
32000
32000
32000
32000
32000
32000
32000
32000
32000
32000
32000
32000
32000
32000
32000
32000
32000
32000
32000
32000
32009.8
32718.2
42504.8
75040.6
101150
109071
110213
110178
110004
110071
110370
110789
111220
111597
111809
111878
111918
111899
111871
111896
111933
111977
111995
112004
111998
111963
111914
111876
32000
32000
32000
32000
32000
32000
32000
32000
32000
32000
32000
32000
32000
32000
32000
32000
32000
32000
32000
32000
32000
32000
32000
32000
32000
32000
32000
32000
32000
32000
32000
32000
32000
32000
32000
32000
32000
32000
32000
32000
32000
32001.7
32162.9
36760.3
60345.6
93609.4
108714
109461
109680
109931
110430
110873
111275
111588
111727
111781
111832
111858
111897
111944
112011
112073
112095
112107
112098
112043
111956
111893
32000
32000
32000
32000
32000
32000
32000
32000
32000
32000
32000
32000
32000
32000
32000
32000
32000
32000
32000
32000
32000
32000
32000
32000
32000
32000
32000
32000
32000
32000
32000
32000
32000
32000
32000
32000
32000
32000
32000
32000
32000
32000
32000.2
32036.7
33642.2
47609.3
83792.4
103579
110098
110686
111044
111247
111484
111631
111697
111747
111768
111849
111929
112006
112080
112142
112168
112186
112178
112122
112026
111911
32000
32000
32000
32000
32000
32000
32000
32000
32000
32000
32000
32000
32000
32000
32000
32000
32000
32000
32000
32000
32000
32000
32000
32000
32000
32000
32000
32000
32000
32000
32000
32000
32000
32000
32000
32000
32000
32000
32000
32000
32000
32000
32000
32000
32006
32376.7
40294.3
67460.2
99236
109546
110581
111155
111467
111755
111916
111978
111946
112001
112039
112076
112137
112163
112181
112196
112201
112161
112067
111907
32000
32000
32000
32000
32000
32000
32000
32000
32000
32000
32000
32000
32000
32000
32000
32000
32000
32000
32000
32000
32000
32000
32000
32000
32000
32000
32000
32000
32000
32000
32000
32000
32000
32000
32000
32000
32000
32000
32000
32000
32000
32000
32000
32000
32000
32000.6
32099.1
34969.1
53211
90018.8
107301
111171
112034
112405
112557
112413
112189
112097
112065
112069
112097
112109
112099
112082
112091
112077
112028
111906
32000
32000
32000
32000
32000
32000
32000
32000
32000
32000
32000
32000
32000
32000
32000
32000
32000
32000
32000
32000
32000
32000
32000
32000
32000
32000
32000
32000
32000
32000
32000
32000
32000
32000
32000
32000
32000
32000
32000
32000
32000
32000
32000
32000
32000
32000
32000.1
32015.7
32757.7
43491.7
76201.6
101419
111270
112454
112495
112246
112072
111920
111887
111971
112072
112109
112093
112043
112007
111993
111970
111893
32000
32000
32000
32000
32000
32000
32000
32000
32000
32000
32000
32000
32000
32000
32000
32000
32000
32000
32000
32000
32000
32000
32000
32000
32000
32000
32000
32000
32000
32000
32000
32000
32000
32000
32000
32000
32000
32000
32000
32000
32000
32000
32000
32000
32000
32000
32000
32000
32001.8
32182.7
36912.6
58832.7
98201.7
109599
111392
111713
111886
111906
112039
112119
112169
112203
112147
112078
111990
111933
111895
111885
32000
32000
32000
32000
32000
32000
32000
32000
32000
32000
32000
32000
32000
32000
32000
32000
32000
32000
32000
32000
32000
32000
32000
32000
32000
32000
32000
32000
32000
32000
32000
32000
32000
32000
32000
32000
32000
32000
32000
32000
32000
32000
32000
32000
32000
32000
32000
32000
32000
32000.2
32035.8
33378.7
49426.1
83343.9
107995
113414
113216
112611
112374
112269
112219
112184
112154
112093
111970
111875
111825
111833
32000
32000
32000
32000
32000
32000
32000
32000
32000
32000
32000
32000
32000
32000
32000
32000
32000
32000
32000
32000
32000
32000
32000
32000
32000
32000
32000
32000
32000
32000
32000
32000
32000
32000
32000
32000
32000
32000
32000
32000
32000
32000
32000
32000
32000
32000
32000
32000
32000
32000
32000
32004.8
32435.4
40212.1
70163.6
101544
110257
111676
112177
111938
112031
112188
112235
112192
112026
111876
111809
111806
32000
32000
32000
32000
32000
32000
32000
32000
32000
32000
32000
32000
32000
32000
32000
32000
32000
32000
32000
32000
32000
32000
32000
32000
32000
32000
32000
32000
32000
32000
32000
32000
32000
32000
32000
32000
32000
32000
32000
32000
32000
32000
32000
32000
32000
32000
32000
32000
32000
32000
32000
32000
32000.8
32095
35201.3
55573.4
91572.1
110984
111929
111781
112010
112336
112401
112318
112100
111909
111857
111862
32000
32000
32000
32000
32000
32000
32000
32000
32000
32000
32000
32000
32000
32000
32000
32000
32000
32000
32000
32000
32000
32000
32000
32000
32000
32000
32000
32000
32000
32000
32000
32000
32000
32000
32000
32000
32000
32000
32000
32000
32000
32000
32000
32000
32000
32000
32000
32000
32000
32000
32000
32000
32000
32000.1
32017.9
32965.2
44286
79092.2
104017
112290
112889
112720
112547
112208
111931
111837
111845
111938
32000
32000
32000
32000
32000
32000
32000
32000
32000
32000
32000
32000
32000
32000
32000
32000
32000
32000
32000
32000
32000
32000
32000
32000
32000
32000
32000
32000
32000
32000
32000
32000
32000
32000
32000
32000
32000
32000
32000
32000
32000
32000
32000
32000
32000
32000
32000
32000
32000
32000
32000
32000
32000
32000
32000
32002.6
32205
37779.8
61440.7
99962.2
109527
111565
111845
111496
111434
111533
111649
111926
32000
32000
32000
32000
32000
32000
32000
32000
32000
32000
32000
32000
32000
32000
32000
32000
32000
32000
32000
32000
32000
32000
32000
32000
32000
32000
32000
32000
32000
32000
32000
32000
32000
32000
32000
32000
32000
32000
32000
32000
32000
32000
32000
32000
32000
32000
32000
32000
32000
32000
32000
32000
32000
32000
32000
32000
32000.3
32051.1
33674.9
50407.5
83004
108733
113447
112685
112158
111993
111888
112011
32000
32000
32000
32000
32000
32000
32000
32000
32000
32000
32000
32000
32000
32000
32000
32000
32000
32000
32000
32000
32000
32000
32000
32000
32000
32000
32000
32000
32000
32000
32000
32000
32000
32000
32000
32000
32000
32000
32000
32000
32000
32000
32000
32000
32000
32000
32000
32000
32000
32000
32000
32000
32000
32000
32000
32000
32000
32000
32006.5
32477.6
39933.6
69332
99431.9
110665
112632
112560
112092
112146
32000
32000
32000
32000
32000
32000
32000
32000
32000
32000
32000
32000
32000
32000
32000
32000
32000
32000
32000
32000
32000
32000
32000
32000
32000
32000
32000
32000
32000
32000
32000
32000
32000
32000
32000
32000
32000
32000