/*--------------------------------*- C++ -*----------------------------------*\
| =========                 |                                                 |
| \\      /  F ield         | OpenFOAM: The Open Source CFD Toolbox           |
|  \\    /   O peration     | Version:  2306                                  |
|   \\  /    A nd           | Website:  www.openfoam.com                      |
|    \\/     M anipulation  |                                                 |
\*---------------------------------------------------------------------------*/
FoamFile
{
    version     2.0;
    format      ascii;
    arch        "LSB;label=32;scalar=64";
    class       volScalarField;
    location    "9e-05";
    object      rho;
}
// * * * * * * * * * * * * * * * * * * * * * * * * * * * * * * * * * * * * * //

dimensions      [1 -3 0 0 0 0 0];

internalField   nonuniform List<scalar> 
9032
(
1.42004
1.4193
1.41895
1.41881
1.41876
1.41854
1.41797
1.41755
1.41756
1.41763
1.41763
1.41756
1.41734
1.41691
1.4163
1.41592
1.41579
1.41578
1.41596
1.41628
1.41651
1.4166
1.41643
1.41613
1.41602
1.41601
1.41604
1.41607
1.41606
1.41594
1.41566
1.41523
1.41477
1.41445
1.41422
1.41409
1.4141
1.41425
1.41438
1.41446
1.41442
1.41434
1.41441
1.41455
1.41474
1.41489
1.41492
1.41485
1.41476
1.41472
1.41475
1.41493
1.41518
1.41535
1.41545
1.41545
1.41522
1.4148
1.41437
1.41412
1.41419
1.41462
1.41554
1.41722
1.42
1.42412
1.42837
1.43282
1.41765
1.41673
1.41672
1.41699
1.41709
1.41686
1.41629
1.41613
1.41626
1.41669
1.41708
1.41708
1.41673
1.4161
1.41554
1.41536
1.41533
1.41535
1.4153
1.41528
1.41526
1.41523
1.41525
1.41538
1.41551
1.41558
1.41559
1.41557
1.41555
1.41548
1.41533
1.41511
1.41483
1.41446
1.41403
1.41374
1.41358
1.41366
1.41392
1.41412
1.41423
1.41431
1.41442
1.41456
1.41466
1.41466
1.41462
1.41451
1.41443
1.41439
1.4144
1.41451
1.41471
1.41491
1.41501
1.41502
1.41487
1.41463
1.41443
1.41436
1.41444
1.41487
1.4159
1.41789
1.42124
1.42589
1.43041
1.43415
1.41247
1.41276
1.41334
1.4136
1.41352
1.41321
1.41267
1.41256
1.41271
1.41319
1.41386
1.41409
1.41399
1.41369
1.41345
1.41342
1.4136
1.41401
1.4142
1.41417
1.41394
1.41367
1.41367
1.41386
1.41414
1.41438
1.4145
1.41455
1.41454
1.41446
1.41435
1.41422
1.41404
1.41378
1.41346
1.41318
1.41304
1.41304
1.41318
1.4134
1.41365
1.41387
1.41403
1.41412
1.41415
1.41414
1.41408
1.41398
1.41391
1.41389
1.41391
1.41398
1.41408
1.41419
1.41427
1.4143
1.41434
1.41438
1.41443
1.4145
1.41468
1.41509
1.41622
1.41855
1.42229
1.42707
1.43132
1.43421
1.40869
1.40954
1.40985
1.41013
1.41044
1.41058
1.41049
1.41035
1.4104
1.41078
1.41127
1.41146
1.41141
1.41129
1.41116
1.41104
1.41107
1.41131
1.41162
1.41179
1.41188
1.41205
1.41231
1.41264
1.413
1.41333
1.41357
1.41371
1.41378
1.41374
1.41364
1.41352
1.41335
1.4131
1.41282
1.4126
1.41252
1.41256
1.4127
1.41291
1.41316
1.41338
1.41353
1.41358
1.41359
1.41357
1.41352
1.41344
1.41339
1.41337
1.41337
1.41338
1.41342
1.41347
1.41356
1.41368
1.41387
1.4141
1.41436
1.41464
1.41497
1.41551
1.41683
1.41956
1.42371
1.42844
1.43223
1.4344
1.40769
1.40932
1.40936
1.40915
1.40926
1.40952
1.40961
1.40954
1.40955
1.40977
1.41009
1.41013
1.41006
1.40995
1.40983
1.40975
1.40977
1.41005
1.41051
1.41101
1.41149
1.41195
1.41234
1.41264
1.41292
1.41321
1.41346
1.4136
1.41362
1.4135
1.41332
1.41315
1.41295
1.41275
1.41254
1.41235
1.4123
1.41234
1.41244
1.4126
1.41279
1.41297
1.4131
1.41315
1.41318
1.4132
1.41319
1.41317
1.41315
1.41313
1.4131
1.41306
1.41306
1.41311
1.41321
1.41339
1.41365
1.41399
1.41441
1.41487
1.4153
1.41607
1.41775
1.42089
1.42535
1.42991
1.43316
1.43453
1.41109
1.41185
1.4112
1.41034
1.41015
1.41036
1.41092
1.41109
1.41093
1.41064
1.41056
1.41048
1.41038
1.4103
1.41021
1.41016
1.41021
1.4105
1.41093
1.41135
1.41178
1.41227
1.41268
1.41296
1.41322
1.41348
1.41369
1.4138
1.41382
1.41369
1.41342
1.41314
1.41289
1.41269
1.41257
1.41247
1.41241
1.4124
1.41245
1.41257
1.41271
1.41288
1.41305
1.41315
1.41324
1.41329
1.41332
1.41331
1.4133
1.41326
1.4132
1.41317
1.41314
1.41316
1.41324
1.4134
1.41364
1.414
1.41448
1.41511
1.41589
1.41714
1.41924
1.42275
1.42733
1.43144
1.4339
1.43468
1.41488
1.41496
1.41387
1.4124
1.41153
1.41168
1.41258
1.41333
1.41357
1.41336
1.41291
1.41244
1.41215
1.4121
1.41212
1.41212
1.41211
1.41218
1.4123
1.41243
1.41265
1.41297
1.41343
1.4139
1.41417
1.41432
1.41437
1.41436
1.4143
1.41409
1.41373
1.41339
1.41317
1.41303
1.41296
1.41302
1.41306
1.41303
1.41302
1.41303
1.4131
1.41325
1.4134
1.41352
1.41364
1.41371
1.41374
1.41375
1.41373
1.41368
1.41361
1.41357
1.41352
1.41351
1.41356
1.41369
1.41391
1.41425
1.41474
1.41546
1.41652
1.41825
1.42101
1.42509
1.42976
1.43329
1.43477
1.43501
1.41938
1.41923
1.41749
1.41508
1.41351
1.41399
1.41515
1.41598
1.41642
1.41622
1.41586
1.41531
1.41477
1.41468
1.41481
1.41509
1.41532
1.41535
1.41524
1.41501
1.4149
1.41496
1.41517
1.41555
1.4158
1.41581
1.41572
1.41558
1.41543
1.41522
1.41493
1.41454
1.41428
1.41417
1.41416
1.41432
1.41443
1.4144
1.41432
1.41427
1.41425
1.41428
1.41438
1.41453
1.41466
1.41473
1.41476
1.41474
1.41466
1.41455
1.41446
1.41442
1.41437
1.41433
1.41436
1.41444
1.41459
1.41485
1.4153
1.41608
1.4174
1.41953
1.42292
1.42754
1.43215
1.43507
1.43591
1.43586
1.41754
1.42121
1.42038
1.41787
1.41586
1.41634
1.41739
1.41839
1.41911
1.41896
1.41866
1.41787
1.41697
1.41677
1.4169
1.41739
1.41773
1.41778
1.41764
1.41729
1.41715
1.41714
1.41724
1.41747
1.41755
1.41746
1.41726
1.41709
1.41695
1.41677
1.41646
1.4161
1.41586
1.41579
1.41581
1.41596
1.41608
1.41609
1.41599
1.4159
1.41586
1.41586
1.41595
1.41609
1.41616
1.4162
1.41618
1.41607
1.41588
1.4157
1.41559
1.41556
1.41553
1.41549
1.41551
1.41558
1.41569
1.41589
1.41628
1.41706
1.41854
1.42108
1.42506
1.43003
1.43432
1.43664
1.4371
1.43697
1.41714
1.42266
1.42135
1.41833
1.41613
1.41726
1.41821
1.41989
1.42075
1.4207
1.4201
1.41879
1.41779
1.41762
1.41779
1.41834
1.41869
1.41883
1.41871
1.41836
1.41827
1.41832
1.4184
1.41856
1.41849
1.4183
1.41805
1.4179
1.41781
1.41769
1.41754
1.41732
1.41717
1.41716
1.41725
1.41746
1.41762
1.41761
1.41745
1.41728
1.41722
1.41724
1.41737
1.41753
1.41757
1.41759
1.41752
1.41734
1.41707
1.41682
1.41667
1.41663
1.41662
1.4166
1.41659
1.41662
1.41674
1.41695
1.41737
1.41819
1.41982
1.42276
1.42724
1.43247
1.43631
1.43797
1.43818
1.43804
1.42438
1.42634
1.42313
1.41787
1.41686
1.41746
1.41828
1.42026
1.42094
1.42102
1.42026
1.4189
1.41805
1.41791
1.41813
1.41869
1.41901
1.41909
1.41892
1.41869
1.4187
1.41874
1.41889
1.41886
1.41862
1.41829
1.41806
1.41803
1.41818
1.41823
1.41815
1.41804
1.41796
1.41801
1.41814
1.41836
1.41851
1.41847
1.4183
1.41812
1.41804
1.41806
1.41823
1.41846
1.41857
1.41859
1.41851
1.4183
1.41798
1.41768
1.41747
1.4174
1.41741
1.41744
1.41747
1.41751
1.41765
1.4179
1.41834
1.41918
1.42094
1.42417
1.42906
1.43442
1.43775
1.43883
1.43895
1.43888
1.42614
1.43029
1.41996
1.41703
1.41776
1.41699
1.41814
1.4196
1.42047
1.42066
1.41989
1.4189
1.41843
1.41836
1.41869
1.41913
1.41934
1.41932
1.41902
1.41894
1.41895
1.41897
1.4191
1.41887
1.41849
1.4181
1.41794
1.41801
1.4182
1.41835
1.41842
1.41845
1.41846
1.4185
1.41858
1.41869
1.41869
1.41855
1.41826
1.41807
1.41802
1.4181
1.41836
1.4187
1.41888
1.41893
1.41886
1.41865
1.41835
1.41807
1.41782
1.41771
1.41776
1.41794
1.41808
1.41815
1.41828
1.41853
1.41899
1.41991
1.42184
1.42549
1.43069
1.43594
1.43867
1.43929
1.43938
1.43937
1.33092
1.41166
1.41249
1.41984
1.4186
1.41692
1.41746
1.41855
1.41941
1.41942
1.41898
1.41876
1.41857
1.41867
1.41903
1.41923
1.41926
1.41913
1.41893
1.41882
1.41878
1.41877
1.41869
1.41844
1.41821
1.41802
1.41799
1.4181
1.41821
1.41838
1.41854
1.41868
1.41877
1.4188
1.41883
1.41881
1.41868
1.41841
1.41801
1.41779
1.41775
1.41785
1.41818
1.41856
1.41879
1.41892
1.41891
1.41875
1.41851
1.41828
1.41805
1.41791
1.41799
1.41822
1.41836
1.41839
1.41848
1.41877
1.41929
1.42042
1.42274
1.42688
1.43225
1.43711
1.43915
1.43945
1.43952
1.43953
0.923986
1.30297
1.41079
1.42598
1.41799
1.41712
1.41829
1.41864
1.41801
1.41791
1.41843
1.41862
1.41855
1.41858
1.41876
1.41893
1.41898
1.41888
1.41876
1.41852
1.41819
1.41801
1.41789
1.41791
1.41799
1.41802
1.4181
1.4182
1.41831
1.41845
1.41862
1.41878
1.41886
1.41885
1.41887
1.41875
1.41841
1.41793
1.41743
1.41729
1.41734
1.41761
1.41802
1.41845
1.41873
1.41888
1.4189
1.41876
1.41857
1.41838
1.4182
1.41805
1.41809
1.41825
1.41836
1.41837
1.4185
1.41885
1.41953
1.42098
1.42383
1.42847
1.43382
1.438
1.4394
1.43952
1.43951
1.43951
0.64012
0.901934
1.3198
1.41547
1.4139
1.41996
1.4203
1.41818
1.4163
1.41694
1.41831
1.41879
1.41879
1.4185
1.4183
1.41822
1.4184
1.41864
1.41866
1.41837
1.41776
1.41731
1.41714
1.41725
1.41766
1.41802
1.41818
1.41831
1.41842
1.41847
1.41856
1.4187
1.41876
1.41876
1.41874
1.41843
1.41799
1.41742
1.41692
1.41681
1.41694
1.41729
1.41777
1.41826
1.41857
1.41873
1.41882
1.41874
1.41859
1.41843
1.41825
1.41809
1.41805
1.41814
1.41824
1.41827
1.41851
1.41896
1.41984
1.42168
1.42511
1.43018
1.43536
1.43858
1.43944
1.43954
1.43949
1.43945
0.620155
0.637888
0.907516
1.2873
1.41543
1.42665
1.42225
1.41637
1.41533
1.41683
1.41893
1.41964
1.41964
1.41876
1.41776
1.41754
1.41783
1.41847
1.41867
1.41839
1.41767
1.41686
1.4167
1.41684
1.41737
1.41806
1.41839
1.41852
1.4186
1.41852
1.41844
1.41853
1.41856
1.41863
1.41857
1.4182
1.41775
1.41716
1.41667
1.41658
1.41676
1.41713
1.41756
1.41795
1.41816
1.41827
1.41837
1.41836
1.41828
1.41817
1.41807
1.4179
1.41784
1.4179
1.41797
1.41813
1.41848
1.41907
1.42024
1.42256
1.42661
1.43195
1.43669
1.439
1.43948
1.43952
1.43946
1.43944
0.62007
0.620141
0.63764
0.877393
1.3068
1.41252
1.4171
1.41479
1.41493
1.41718
1.41944
1.42066
1.42091
1.41971
1.41752
1.41676
1.41709
1.41796
1.41855
1.41835
1.41791
1.41713
1.41667
1.41683
1.41731
1.41814
1.41868
1.41883
1.41888
1.41866
1.41838
1.4184
1.41843
1.41852
1.41842
1.41806
1.41765
1.41714
1.41667
1.41658
1.41677
1.41708
1.41744
1.41771
1.4178
1.41784
1.41794
1.41804
1.41803
1.41798
1.41793
1.41777
1.41764
1.41764
1.41769
1.41797
1.41846
1.41923
1.42074
1.42362
1.42827
1.43368
1.43772
1.4392
1.43953
1.43956
1.4395
1.43943
0.62007
0.62007
0.620139
0.634033
0.87864
1.28176
1.41866
1.41857
1.41661
1.41819
1.41871
1.42092
1.42143
1.42012
1.41751
1.41575
1.41597
1.41662
1.4178
1.41813
1.41791
1.41754
1.41698
1.41707
1.41748
1.41824
1.41895
1.41912
1.41913
1.4188
1.4184
1.41833
1.41831
1.41842
1.4183
1.41799
1.41765
1.41721
1.41679
1.41674
1.41691
1.41711
1.41735
1.41752
1.41753
1.41751
1.41762
1.41778
1.41783
1.41782
1.41778
1.41762
1.41745
1.41747
1.41758
1.41789
1.41844
1.41941
1.42132
1.4248
1.42995
1.43522
1.43835
1.43926
1.4396
1.43967
1.4396
1.43942
0.62007
0.62007
0.62007
0.620119
0.633059
0.865057
1.26984
1.40405
1.41552
1.41364
1.41372
1.41798
1.4207
1.41963
1.41789
1.41577
1.41533
1.41543
1.41644
1.4176
1.41774
1.41765
1.41724
1.41729
1.41765
1.41827
1.41901
1.41924
1.41922
1.41888
1.41832
1.41806
1.41793
1.41798
1.41811
1.41798
1.41777
1.41751
1.41717
1.41699
1.41706
1.41713
1.41725
1.41732
1.41731
1.41731
1.41746
1.4176
1.41768
1.41768
1.41763
1.41745
1.41728
1.41736
1.41751
1.41788
1.41849
1.41967
1.42201
1.42609
1.43157
1.4364
1.43863
1.43927
1.43959
1.4396
1.43951
1.4393
0.62007
0.62007
0.62007
0.62007
0.620115
0.631894
0.823545
1.25834
1.42159
1.40945
1.41045
1.41547
1.41983
1.41999
1.4194
1.41724
1.41559
1.41504
1.41563
1.41675
1.41732
1.41758
1.4175
1.4174
1.41765
1.41809
1.41875
1.41908
1.41906
1.41872
1.41795
1.41735
1.41714
1.41714
1.41753
1.41793
1.41797
1.4179
1.41771
1.41738
1.41712
1.41704
1.417
1.41703
1.41707
1.41719
1.41742
1.41755
1.4176
1.4176
1.41754
1.41737
1.41725
1.41738
1.41761
1.41789
1.41858
1.42005
1.42291
1.42755
1.43311
1.4373
1.43878
1.43925
1.43949
1.43944
1.43932
1.43909
0.62007
0.62007
0.62007
0.62007
0.62007
0.620106
0.62718
0.814224
1.25029
1.38763
1.41559
1.42137
1.42043
1.42045
1.42068
1.41986
1.41783
1.41617
1.41591
1.41647
1.41724
1.41763
1.41773
1.41749
1.41755
1.41787
1.41841
1.41879
1.41878
1.41848
1.41775
1.41696
1.41663
1.41657
1.41692
1.41764
1.41821
1.41832
1.4182
1.41773
1.4171
1.41678
1.41669
1.41674
1.41691
1.41713
1.41744
1.41765
1.41762
1.41759
1.41754
1.41743
1.41735
1.41745
1.41776
1.41811
1.41896
1.42075
1.42411
1.42921
1.43464
1.43795
1.43892
1.43923
1.43937
1.43929
1.43914
1.43893
0.62007
0.62007
0.62007
0.62007
0.62007
0.62007
0.620087
0.62672
0.796336
1.1879
1.41179
1.42943
1.41719
1.41848
1.41986
1.41897
1.41783
1.41738
1.41701
1.41706
1.41736
1.41806
1.41834
1.4182
1.41797
1.41807
1.41831
1.41862
1.41864
1.41838
1.41778
1.4169
1.41649
1.41648
1.41681
1.4175
1.41834
1.41861
1.41845
1.41792
1.41716
1.41667
1.41658
1.41666
1.41694
1.41737
1.41782
1.41812
1.41807
1.41788
1.41774
1.41759
1.41753
1.41763
1.41798
1.41845
1.41951
1.4217
1.42562
1.43106
1.4361
1.4385
1.43907
1.43922
1.43931
1.43922
1.43903
1.43883
0.62007
0.62007
0.62007
0.62007
0.62007
0.62007
0.62007
0.620085
0.624837
0.756448
1.18348
1.37532
1.40964
1.41514
1.41681
1.4175
1.41813
1.4185
1.41807
1.41787
1.41802
1.41869
1.41904
1.41904
1.41874
1.41834
1.41834
1.41849
1.41866
1.41862
1.41836
1.4177
1.41695
1.41685
1.41706
1.41763
1.41844
1.41877
1.41855
1.41806
1.41734
1.41672
1.41662
1.41675
1.41712
1.41763
1.41811
1.41845
1.41845
1.41823
1.41807
1.41793
1.41789
1.41801
1.41838
1.41894
1.42024
1.42286
1.42733
1.43289
1.43724
1.43893
1.43927
1.43936
1.43933
1.43922
1.43902
1.43884
0.62007
0.62007
0.62007
0.62007
0.62007
0.62007
0.62007
0.62007
0.620079
0.622762
0.739478
1.13227
1.38911
1.43274
1.42405
1.41472
1.4177
1.41818
1.41754
1.41747
1.41808
1.41881
1.41933
1.41929
1.41896
1.41833
1.41805
1.41812
1.41839
1.41863
1.41874
1.41868
1.41823
1.4179
1.41801
1.41823
1.4186
1.41886
1.41864
1.41821
1.41765
1.41713
1.41698
1.41713
1.41743
1.41787
1.41834
1.4187
1.41878
1.41861
1.41851
1.41844
1.41841
1.41857
1.41891
1.41956
1.42115
1.42426
1.42918
1.43458
1.43797
1.43913
1.43945
1.43952
1.43947
1.43936
1.43916
1.43896
0.62007
0.62007
0.62007
0.62007
0.62007
0.62007
0.62007
0.62007
0.62007
0.620074
0.622091
0.71644
1.0889
1.37565
1.40305
1.41179
1.41638
1.41728
1.41629
1.41636
1.41717
1.41782
1.41872
1.41914
1.41884
1.41797
1.41718
1.41708
1.41738
1.4181
1.41865
1.41888
1.41894
1.4189
1.41887
1.41892
1.41894
1.41889
1.4186
1.41822
1.4178
1.41751
1.41744
1.41755
1.41779
1.4181
1.41847
1.41877
1.4189
1.41888
1.41888
1.41891
1.41893
1.41909
1.4194
1.42022
1.42218
1.42582
1.4311
1.43599
1.43846
1.43919
1.43948
1.4396
1.43957
1.43953
1.43937
1.43919
0.62007
0.62007
0.62007
0.62007
0.62007
0.62007
0.62007
0.62007
0.62007
0.62007
0.620073
0.621374
0.685386
1.04913
1.33708
1.42718
1.42536
1.42029
1.4176
1.41734
1.41703
1.4174
1.41823
1.41868
1.41848
1.41787
1.41717
1.41679
1.41682
1.41705
1.41765
1.41847
1.41896
1.41918
1.41921
1.41916
1.41911
1.41888
1.41854
1.41816
1.41788
1.41772
1.41771
1.41781
1.41797
1.4182
1.41846
1.4187
1.41887
1.41896
1.41904
1.41911
1.41916
1.41932
1.41973
1.42084
1.42324
1.42746
1.43294
1.4371
1.43877
1.43923
1.43947
1.43964
1.43969
1.43971
1.43962
1.43945
0.62007
0.62007
0.62007
0.62007
0.62007
0.62007
0.62007
0.62007
0.62007
0.62007
0.62007
0.620072
0.620692
0.672602
0.974727
1.34096
1.42007
1.41571
1.41892
1.42065
1.41906
1.41815
1.41833
1.41869
1.41903
1.41924
1.41895
1.41827
1.4174
1.41702
1.41713
1.41762
1.41826
1.41877
1.41911
1.41917
1.4191
1.41889
1.41853
1.41813
1.41785
1.41782
1.41787
1.41796
1.41807
1.41814
1.41829
1.4185
1.41871
1.41888
1.41905
1.41916
1.41924
1.41943
1.41997
1.42139
1.42432
1.42911
1.43451
1.43791
1.43898
1.43929
1.43949
1.43969
1.43979
1.43985
1.43978
1.43957
0.62007
0.62007
0.62007
0.62007
0.62007
0.62007
0.62007
0.62007
0.62007
0.62007
0.62007
0.62007
0.620071
0.6205
0.651407
0.922298
1.30587
1.40082
1.42333
1.42281
1.4213
1.41924
1.41835
1.41872
1.41936
1.42025
1.42038
1.42004
1.41915
1.4179
1.41729
1.41738
1.4176
1.41794
1.41837
1.41867
1.41891
1.41899
1.41885
1.41845
1.41801
1.41774
1.41765
1.41772
1.41785
1.41796
1.41814
1.41834
1.41853
1.41872
1.41889
1.41899
1.41908
1.41934
1.42006
1.42186
1.42536
1.43066
1.43582
1.43844
1.43914
1.43941
1.43961
1.43973
1.43977
1.43979
1.43971
1.43949
0.62007
0.62007
0.62007
0.62007
0.62007
0.62007
0.62007
0.62007
0.62007
0.62007
0.62007
0.62007
0.62007
0.620071
0.620234
0.639217
0.87534
1.24863
1.4074
1.42191
1.42108
1.41989
1.41789
1.41625
1.41637
1.41835
1.42001
1.42012
1.4196
1.41853
1.41766
1.41752
1.41751
1.41753
1.41769
1.41797
1.41844
1.41897
1.41909
1.41896
1.41849
1.41788
1.41754
1.4175
1.41756
1.41776
1.41804
1.41828
1.41848
1.41864
1.41875
1.41886
1.41894
1.41928
1.42025
1.4225
1.42659
1.43201
1.43664
1.43867
1.43925
1.43954
1.43967
1.43972
1.43971
1.43965
1.43954
1.43935
0.62007
0.62007
0.62007
0.62007
0.62007
0.62007
0.62007
0.62007
0.62007
0.62007
0.62007
0.62007
0.62007
0.62007
0.62007
0.620152
0.631841
0.805902
1.19974
1.39888
1.42062
1.41978
1.41666
1.41223
1.4118
1.41381
1.41729
1.41879
1.4188
1.41834
1.41772
1.41777
1.41772
1.41742
1.41728
1.41727
1.41754
1.41828
1.419
1.41906
1.41882
1.41823
1.41756
1.41724
1.41723
1.41745
1.41786
1.41819
1.41845
1.41865
1.41881
1.41889
1.41898
1.41941
1.42071
1.42348
1.42809
1.43335
1.43707
1.4386
1.43921
1.43948
1.43957
1.4396
1.43955
1.43943
1.4393
1.4391
0.62007
0.62007
0.62007
0.62007
0.62007
0.62007
0.62007
0.62007
0.62007
0.62007
0.62007
0.62007
0.62007
0.62007
0.62007
0.62007
0.620105
0.625361
0.752789
1.15959
1.37901
1.4241
1.41841
1.41213
1.4122
1.4138
1.41656
1.41798
1.4176
1.4171
1.41705
1.41729
1.41762
1.4176
1.41721
1.41701
1.41709
1.41744
1.41815
1.41874
1.41873
1.41837
1.41769
1.41713
1.41697
1.41709
1.41742
1.41799
1.41846
1.41874
1.41895
1.41907
1.41915
1.41975
1.42142
1.42472
1.4297
1.43456
1.43736
1.43844
1.43899
1.43926
1.43935
1.43938
1.43932
1.43917
1.43902
1.43881
0.62007
0.62007
0.62007
0.62007
0.62007
0.62007
0.62007
0.62007
0.62007
0.62007
0.62007
0.62007
0.62007
0.62007
0.62007
0.62007
0.62007
0.62008
0.6227
0.723097
1.06713
1.3816
1.42186
1.41657
1.41729
1.41845
1.41876
1.41817
1.41722
1.41633
1.41628
1.41665
1.41777
1.41828
1.41825
1.41779
1.4173
1.4173
1.41763
1.41811
1.41835
1.41824
1.41788
1.41727
1.41694
1.41694
1.41705
1.41741
1.41811
1.41872
1.41908
1.41931
1.41941
1.42015
1.42224
1.42608
1.43119
1.43551
1.43755
1.43828
1.43867
1.43888
1.43901
1.43909
1.43907
1.43896
1.43878
1.43854
0.62007
0.62007
0.62007
0.62007
0.62007
0.62007
0.62007
0.62007
0.62007
0.62007
0.62007
0.62007
0.62007
0.62007
0.62007
0.62007
0.62007
0.62007
0.620074
0.621552
0.679398
1.01357
1.3164
1.4107
1.42282
1.4216
1.42057
1.41939
1.41766
1.41664
1.41624
1.4167
1.4182
1.41918
1.41942
1.41931
1.41866
1.41801
1.41775
1.41787
1.41817
1.41825
1.41817
1.41785
1.41734
1.417
1.41699
1.41721
1.4177
1.41843
1.41905
1.41945
1.41971
1.42061
1.42309
1.42736
1.43233
1.43604
1.43764
1.43817
1.43843
1.43857
1.43871
1.43882
1.43885
1.43879
1.4386
1.43836
0.62007
0.62007
0.62007
0.62007
0.62007
0.62007
0.62007
0.62007
0.62007
0.62007
0.62007
0.62007
0.62007
0.62007
0.62007
0.62007
0.62007
0.62007
0.62007
0.620072
0.620583
0.656766
0.917947
1.29038
1.41083
1.41869
1.42142
1.42101
1.41839
1.41738
1.41634
1.41658
1.41787
1.4192
1.41964
1.41947
1.41899
1.41853
1.41817
1.41808
1.41826
1.41839
1.41851
1.41847
1.41821
1.41774
1.41733
1.41734
1.41771
1.41838
1.41906
1.41957
1.4201
1.42127
1.42417
1.42875
1.43331
1.43628
1.43757
1.43811
1.43836
1.43852
1.43863
1.43872
1.43875
1.43868
1.43848
1.4383
0.62007
0.62007
0.62007
0.62007
0.62007
0.62007
0.62007
0.62007
0.62007
0.62007
0.62007
0.62007
0.62007
0.62007
0.62007
0.62007
0.62007
0.62007
0.62007
0.62007
0.620071
0.620288
0.63882
0.83853
1.23127
1.39618
1.42557
1.42193
1.41807
1.41645
1.41598
1.41596
1.41624
1.41676
1.41763
1.41826
1.41842
1.41839
1.41828
1.41814
1.41826
1.41842
1.41862
1.41869
1.41852
1.41827
1.41802
1.41786
1.41806
1.41842
1.41903
1.41973
1.42063
1.4224
1.42571
1.43037
1.43437
1.43655
1.43751
1.43805
1.43837
1.43859
1.43874
1.43879
1.43875
1.43865
1.43846
1.43834
0.62007
0.62007
0.62007
0.62007
0.62007
0.62007
0.62007
0.62007
0.62007
0.62007
0.62007
0.62007
0.62007
0.62007
0.62007
0.62007
0.62007
0.62007
0.62007
0.62007
0.62007
0.62007
0.620142
0.627757
0.776409
1.15985
1.38275
1.40693
1.41401
1.41663
1.41696
1.41643
1.41551
1.4156
1.41625
1.4171
1.41753
1.41766
1.41776
1.41782
1.41795
1.41803
1.41819
1.4185
1.4185
1.41835
1.41823
1.41816
1.41825
1.41856
1.41905
1.4199
1.42126
1.42371
1.42776
1.43243
1.43563
1.43697
1.43758
1.43809
1.43849
1.43878
1.43894
1.43894
1.43884
1.43868
1.43853
1.43844
0.62007
0.62007
0.62007
0.62007
0.62007
0.62007
0.62007
0.62007
0.62007
0.62007
0.62007
0.62007
0.62007
0.62007
0.62007
0.62007
0.62007
0.62007
0.62007
0.62007
0.62007
0.62007
0.62007
0.620089
0.623679
0.718843
1.06466
1.34805
1.42595
1.42519
1.42284
1.42094
1.41947
1.41918
1.41867
1.41818
1.41796
1.41784
1.4177
1.41777
1.41788
1.41782
1.41783
1.41806
1.41827
1.41826
1.41824
1.41819
1.41822
1.41847
1.41897
1.42002
1.42184
1.42498
1.42971
1.43442
1.43685
1.43752
1.43786
1.43831
1.43878
1.4391
1.43929
1.43928
1.43903
1.43878
1.43864
1.43857
0.62007
0.62007
0.62007
0.62007
0.62007
0.62007
0.62007
0.62007
0.62007
0.62007
0.62007
0.62007
0.62007
0.62007
0.62007
0.62007
0.62007
0.62007
0.62007
0.62007
0.62007
0.62007
0.62007
0.62007
0.620076
0.621428
0.673984
0.963576
1.32025
1.40881
1.41906
1.42253
1.42227
1.42164
1.42083
1.41971
1.4188
1.41842
1.41824
1.41831
1.41824
1.41808
1.41792
1.41798
1.41813
1.41808
1.41796
1.41787
1.4179
1.41812
1.41872
1.42012
1.42249
1.42625
1.43145
1.43585
1.43749
1.43786
1.43818
1.4386
1.43906
1.43941
1.43961
1.43959
1.43929
1.43893
1.43876
1.43866
0.62007
0.62007
0.62007
0.62007
0.62007
0.62007
0.62007
0.62007
0.62007
0.62007
0.62007
0.62007
0.62007
0.62007
0.62007
0.62007
0.62007
0.62007
0.62007
0.62007
0.62007
0.62007
0.62007
0.62007
0.62007
0.620072
0.620485
0.647273
0.873757
1.24535
1.39546
1.42178
1.42313
1.41856
1.41961
1.41929
1.41844
1.41844
1.41888
1.41891
1.41867
1.41843
1.41838
1.41848
1.41841
1.41829
1.4179
1.41748
1.41743
1.41768
1.41846
1.4202
1.42312
1.42754
1.43275
1.43648
1.43771
1.43806
1.43836
1.43881
1.43926
1.4396
1.43975
1.43971
1.43936
1.43898
1.43882
1.43869
0.62007
0.62007
0.62007
0.62007
0.62007
0.62007
0.62007
0.62007
0.62007
0.62007
0.62007
0.62007
0.62007
0.62007
0.62007
0.62007
0.62007
0.62007
0.62007
0.62007
0.62007
0.62007
0.62007
0.62007
0.62007
0.62007
0.620071
0.620201
0.630904
0.789696
1.1675
1.3699
1.40797
1.41229
1.4177
1.41832
1.41811
1.41772
1.41775
1.41783
1.41792
1.41798
1.41834
1.41873
1.41876
1.41855
1.41795
1.41725
1.41712
1.41751
1.41853
1.4206
1.42406
1.42894
1.43383
1.4366
1.43745
1.43781
1.43829
1.43895
1.43944
1.43972
1.43976
1.43959
1.43923
1.43898
1.43884
1.4387
0.62007
0.62007
0.62007
0.62007
0.62007
0.62007
0.62007
0.62007
0.62007
0.62007
0.62007
0.62007
0.62007
0.62007
0.62007
0.62007
0.62007
0.62007
0.62007
0.62007
0.62007
0.62007
0.62007
0.62007
0.62007
0.62007
0.62007
0.62007
0.620101
0.624441
0.717714
1.05814
1.33902
1.4247
1.42687
1.42241
1.41831
1.41702
1.41659
1.41621
1.41612
1.41661
1.41761
1.4184
1.4185
1.41819
1.41755
1.41683
1.41683
1.41743
1.41871
1.42122
1.42512
1.43029
1.43488
1.43678
1.43734
1.43768
1.43818
1.43888
1.43942
1.43973
1.43977
1.43955
1.43917
1.43896
1.43881
1.43861
0.62007
0.62007
0.62007
0.62007
0.62007
0.62007
0.62007
0.62007
0.62007
0.62007
0.62007
0.62007
0.62007
0.62007
0.62007
0.62007
0.62007
0.62007
0.62007
0.62007
0.62007
0.62007
0.62007
0.62007
0.62007
0.62007
0.62007
0.62007
0.62007
0.620078
0.621312
0.674152
0.935667
1.31412
1.3976
1.41391
1.41621
1.41609
1.41637
1.41603
1.41588
1.41655
1.41762
1.41827
1.41804
1.41753
1.417
1.41656
1.41681
1.41758
1.41907
1.42175
1.42595
1.43138
1.43552
1.43691
1.43734
1.43763
1.4381
1.43879
1.43944
1.4398
1.43986
1.43966
1.43936
1.43918
1.43899
1.43867
0.62007
0.62007
0.62007
0.62007
0.62007
0.62007
0.62007
0.62007
0.62007
0.62007
0.62007
0.62007
0.62007
0.62007
0.62007
0.62007
0.62007
0.62007
0.62007
0.62007
0.62007
0.62007
0.62007
0.62007
0.62007
0.62007
0.62007
0.62007
0.62007
0.62007
0.620071
0.620514
0.640638
0.848729
1.20044
1.40193
1.42948
1.42513
1.42196
1.42011
1.41908
1.41918
1.41932
1.41889
1.41812
1.41741
1.41699
1.41685
1.41728
1.41813
1.41966
1.42245
1.42676
1.43223
1.43587
1.43701
1.43735
1.43767
1.43813
1.43877
1.43941
1.4398
1.43993
1.43986
1.43969
1.43944
1.43913
1.43874
0.62007
0.62007
0.62007
0.62007
0.62007
0.62007
0.62007
0.62007
0.62007
0.62007
0.62007
0.62007
0.62007
0.62007
0.62007
0.62007
0.62007
0.62007
0.62007
0.62007
0.62007
0.62007
0.62007
0.62007
0.62007
0.62007
0.62007
0.62007
0.62007
0.62007
0.62007
0.620071
0.620154
0.628205
0.752216
1.11295
1.35237
1.40581
1.4173
1.42
1.42155
1.42178
1.42089
1.4196
1.4185
1.41786
1.41765
1.41793
1.41847
1.41927
1.42072
1.42347
1.42798
1.43321
1.43633
1.43727
1.43762
1.43795
1.43838
1.43889
1.43937
1.43974
1.43999
1.43999
1.4399
1.43965
1.43925
1.43879
0.62007
0.62007
0.62007
0.62007
0.62007
0.62007
0.62007
0.62007
0.62007
0.62007
0.62007
0.62007
0.62007
0.62007
0.62007
0.62007
0.62007
0.62007
0.62007
0.62007
0.62007
0.62007
0.62007
0.62007
0.62007
0.62007
0.62007
0.62007
0.62007
0.62007
0.62007
0.62007
0.62007
0.620089
0.622525
0.688809
0.986474
1.30379
1.41569
1.42093
1.42188
1.42066
1.41863
1.41782
1.41784
1.41789
1.41811
1.41843
1.419
1.41984
1.4215
1.42465
1.42945
1.4343
1.43695
1.43775
1.43807
1.43844
1.43875
1.43901
1.43937
1.43978
1.44009
1.44013
1.44006
1.43979
1.4393
1.43875
0.62007
0.62007
0.62007
0.62007
0.62007
0.62007
0.62007
0.62007
0.62007
0.62007
0.62007
0.62007
0.62007
0.62007
0.62007
0.62007
0.62007
0.62007
0.62007
0.62007
0.62007
0.62007
0.62007
0.62007
0.62007
0.62007
0.62007
0.62007
0.62007
0.62007
0.62007
0.62007
0.62007
0.62007
0.620073
0.620711
0.650694
0.85178
1.24288
1.38566
1.41494
1.41486
1.41291
1.4145
1.41671
1.41739
1.41779
1.41805
1.4184
1.41927
1.42139
1.42543
1.43077
1.43513
1.43729
1.43805
1.43844
1.43879
1.43898
1.43908
1.43938
1.43983
1.44016
1.44025
1.44019
1.43989
1.43931
1.43869
0.62007
0.62007
0.62007
0.62007
0.62007
0.62007
0.62007
0.62007
0.62007
0.62007
0.62007
0.62007
0.62007
0.62007
0.62007
0.62007
0.62007
0.62007
0.62007
0.62007
0.62007
0.62007
0.62007
0.62007
0.62007
0.62007
0.62007
0.62007
0.62007
0.62007
0.62007
0.62007
0.62007
0.62007
0.62007
0.620071
0.620228
0.628799
0.76815
1.10794
1.37582
1.4212
1.416
1.41905
1.42036
1.4184
1.41764
1.41764
1.41836
1.41951
1.42194
1.42624
1.43137
1.43544
1.43741
1.43828
1.43864
1.4388
1.43881
1.43894
1.4393
1.43976
1.44016
1.44031
1.44027
1.43997
1.43935
1.43868
0.62007
0.62007
0.62007
0.62007
0.62007
0.62007
0.62007
0.62007
0.62007
0.62007
0.62007
0.62007
0.62007
0.62007
0.62007
0.62007
0.62007
0.62007
0.62007
0.62007
0.62007
0.62007
0.62007
0.62007
0.62007
0.62007
0.62007
0.62007
0.62007
0.62007
0.62007
0.62007
0.62007
0.62007
0.62007
0.62007
0.62007
0.620092
0.622998
0.692169
0.98652
1.30221
1.40254
1.43034
1.42624
1.41956
1.41728
1.41809
1.41953
1.42125
1.42357
1.42762
1.43229
1.43582
1.43793
1.43873
1.43901
1.43891
1.43861
1.43874
1.4391
1.43958
1.44007
1.44025
1.44022
1.43998
1.43942
1.43876
0.62007
0.62007
0.62007
0.62007
0.62007
0.62007
0.62007
0.62007
0.62007
0.62007
0.62007
0.62007
0.62007
0.62007
0.62007
0.62007
0.62007
0.62007
0.62007
0.62007
0.62007
0.62007
0.62007
0.62007
0.62007
0.62007
0.62007
0.62007
0.62007
0.62007
0.62007
0.62007
0.62007
0.62007
0.62007
0.62007
0.62007
0.62007
0.620074
0.620792
0.647931
0.858568
1.20125
1.40286
1.41492
1.41333
1.41479
1.41826
1.42054
1.42255
1.42484
1.42851
1.43288
1.4365
1.43877
1.43945
1.43956
1.43913
1.43864
1.43878
1.43913
1.43965
1.44012
1.44027
1.44021
1.43992
1.43939
1.43886
0.62007
0.62007
0.62007
0.62007
0.62007
0.62007
0.62007
0.62007
0.62007
0.62007
0.62007
0.62007
0.62007
0.62007
0.62007
0.62007
0.62007
0.62007
0.62007
0.62007
0.62007
0.62007
0.62007
0.62007
0.62007
0.62007
0.62007
0.62007
0.62007
0.62007
0.62007
0.62007
0.62007
0.62007
0.62007
0.62007
0.62007
0.62007
0.62007
0.620071
0.620202
0.629352
0.745094
1.09159
1.34124
1.41488
1.42477
1.42369
1.42183
1.4223
1.4249
1.42883
1.43309
1.43702
1.43928
1.43978
1.43976
1.43921
1.43875
1.43901
1.43952
1.44019
1.44057
1.44069
1.44055
1.44002
1.43937
1.43891
0.62007
0.62007
0.62007
0.62007
0.62007
0.62007
0.62007
0.62007
0.62007
0.62007
0.62007
0.62007
0.62007
0.62007
0.62007
0.62007
0.62007
0.62007
0.62007
0.62007
0.62007
0.62007
0.62007
0.62007
0.62007
0.62007
0.62007
0.62007
0.62007
0.62007
0.62007
0.62007
0.62007
0.62007
0.62007
0.62007
0.62007
0.62007
0.62007
0.62007
0.62007
0.620093
0.622203
0.678645
0.941717
1.27198
1.41089
1.41729
1.41891
1.42091
1.42543
1.42972
1.43378
1.43712
1.43851
1.4387
1.43872
1.43867
1.43893
1.4395
1.44034
1.44116
1.44147
1.44154
1.4413
1.44056
1.43957
1.43891
0.62007
0.62007
0.62007
0.62007
0.62007
0.62007
0.62007
0.62007
0.62007
0.62007
0.62007
0.62007
0.62007
0.62007
0.62007
0.62007
0.62007
0.62007
0.62007
0.62007
0.62007
0.62007
0.62007
0.62007
0.62007
0.62007
0.62007
0.62007
0.62007
0.62007
0.62007
0.62007
0.62007
0.62007
0.62007
0.62007
0.62007
0.62007
0.62007
0.62007
0.62007
0.62007
0.620073
0.620557
0.640967
0.803093
1.17782
1.36372
1.42276
1.42781
1.43105
1.43331
1.43594
1.43761
1.43808
1.43813
1.43794
1.4384
1.43917
1.44008
1.44099
1.44169
1.44192
1.44193
1.44165
1.44093
1.43991
1.43882
0.62007
0.62007
0.62007
0.62007
0.62007
0.62007
0.62007
0.62007
0.62007
0.62007
0.62007
0.62007
0.62007
0.62007
0.62007
0.62007
0.62007
0.62007
0.62007
0.62007
0.62007
0.62007
0.62007
0.62007
0.62007
0.62007
0.62007
0.62007
0.62007
0.62007
0.62007
0.62007
0.62007
0.62007
0.62007
0.62007
0.62007
0.62007
0.62007
0.62007
0.62007
0.62007
0.62007
0.620071
0.620152
0.624975
0.719667
1.01597
1.32465
1.41695
1.42674
1.43265
1.43601
1.43873
1.43985
1.43984
1.43919
1.43947
1.43998
1.44058
1.44133
1.44157
1.4416
1.44149
1.44132
1.44079
1.43984
1.43838
0.62007
0.62007
0.62007
0.62007
0.62007
0.62007
0.62007
0.62007
0.62007
0.62007
0.62007
0.62007
0.62007
0.62007
0.62007
0.62007
0.62007
0.62007
0.62007
0.62007
0.62007
0.62007
0.62007
0.62007
0.62007
0.62007
0.62007
0.62007
0.62007
0.62007
0.62007
0.62007
0.62007
0.62007
0.62007
0.62007
0.62007
0.62007
0.62007
0.62007
0.62007
0.62007
0.62007
0.62007
0.62007
0.620079
0.62137
0.657175
0.865075
1.2364
1.39597