/*--------------------------------*- C++ -*----------------------------------*\
| =========                 |                                                 |
| \\      /  F ield         | OpenFOAM: The Open Source CFD Toolbox           |
|  \\    /   O peration     | Version:  2306                                  |
|   \\  /    A nd           | Website:  www.openfoam.com                      |
|    \\/     M anipulation  |                                                 |
\*---------------------------------------------------------------------------*/
FoamFile
{
    version     2.0;
    format      ascii;
    arch        "LSB;label=32;scalar=64";
    class       volScalarField;
    location    "9e-05";
    object      T;
}
// * * * * * * * * * * * * * * * * * * * * * * * * * * * * * * * * * * * * * //

dimensions      [0 0 0 1 0 0 0];

internalField   nonuniform List<scalar> 
9032
(
269.279
269.297
269.346
269.431
269.533
269.592
269.604
269.619
269.669
269.73
269.777
269.812
269.834
269.84
269.837
269.845
269.872
269.91
269.963
270.019
270.059
270.083
270.086
270.086
270.098
270.122
270.144
270.165
270.181
270.182
270.176
270.161
270.143
270.131
270.124
270.128
270.144
270.17
270.191
270.204
270.205
270.204
270.218
270.238
270.257
270.275
270.286
270.287
270.288
270.29
270.296
270.314
270.338
270.358
270.369
270.372
270.359
270.331
270.303
270.289
270.297
270.332
270.402
270.53
270.742
271.055
271.374
271.707
269.59
269.59
269.626
269.713
269.792
269.811
269.807
269.823
269.874
269.944
270.004
270.025
270.02
270.001
269.989
269.999
270.024
270.054
270.075
270.095
270.108
270.117
270.131
270.154
270.179
270.2
270.215
270.224
270.233
270.237
270.235
270.228
270.219
270.201
270.175
270.163
270.163
270.177
270.207
270.228
270.24
270.251
270.264
270.279
270.289
270.296
270.297
270.295
270.294
270.294
270.297
270.308
270.328
270.348
270.36
270.362
270.355
270.341
270.328
270.325
270.332
270.365
270.443
270.595
270.849
271.202
271.545
271.832
270.382
270.402
270.43
270.429
270.4
270.346
270.298
270.294
270.314
270.349
270.39
270.397
270.376
270.339
270.317
270.314
270.329
270.361
270.376
270.373
270.357
270.335
270.333
270.342
270.358
270.374
270.382
270.384
270.382
270.374
270.364
270.352
270.338
270.318
270.293
270.273
270.261
270.261
270.273
270.291
270.311
270.329
270.34
270.345
270.347
270.346
270.341
270.332
270.326
270.323
270.324
270.33
270.341
270.352
270.359
270.362
270.365
270.37
270.373
270.377
270.387
270.414
270.498
270.674
270.959
271.323
271.651
271.879
271.179
271.178
271.147
271.08
270.987
270.902
270.851
270.828
270.816
270.811
270.807
270.785
270.725
270.66
270.617
270.582
270.563
270.559
270.559
270.552
270.541
270.541
270.541
270.543
270.549
270.557
270.56
270.559
270.553
270.538
270.519
270.497
270.47
270.439
270.407
270.383
270.363
270.359
270.363
270.372
270.387
270.399
270.402
270.401
270.397
270.39
270.379
270.367
270.357
270.349
270.345
270.345
270.347
270.351
270.357
270.364
270.374
270.389
270.405
270.423
270.443
270.48
270.577
270.782
271.096
271.46
271.753
271.914
271.468
271.492
271.454
271.341
271.2
271.099
271.051
271.03
271.005
270.976
270.953
270.909
270.834
270.759
270.704
270.665
270.638
270.629
270.63
270.636
270.647
270.659
270.663
270.659
270.655
270.655
270.655
270.651
270.64
270.613
270.582
270.552
270.519
270.486
270.452
270.427
270.405
270.397
270.398
270.402
270.408
270.411
270.411
270.406
270.401
270.394
270.386
270.375
270.365
270.355
270.346
270.341
270.34
270.342
270.347
270.357
270.371
270.393
270.418
270.445
270.477
270.538
270.662
270.896
271.233
271.582
271.818
271.916
271.383
271.389
271.324
271.212
271.096
271.035
271.023
271.004
270.958
270.9
270.869
270.835
270.783
270.724
270.672
270.635
270.608
270.601
270.604
270.611
270.625
270.644
270.653
270.65
270.646
270.646
270.645
270.639
270.628
270.602
270.563
270.525
270.489
270.456
270.43
270.411
270.392
270.379
270.379
270.381
270.383
270.385
270.387
270.386
270.384
270.381
270.375
270.367
270.356
270.344
270.332
270.324
270.319
270.319
270.321
270.33
270.345
270.366
270.395
270.435
270.492
270.583
270.742
271.009
271.353
271.652
271.821
271.883
270.699
270.709
270.684
270.652
270.591
270.579
270.598
270.6
270.594
270.568
270.554
270.55
270.542
270.521
270.493
270.463
270.433
270.416
270.409
270.411
270.425
270.448
270.477
270.499
270.505
270.505
270.501
270.493
270.481
270.455
270.416
270.377
270.347
270.323
270.308
270.305
270.301
270.294
270.29
270.286
270.284
270.288
270.293
270.298
270.303
270.303
270.301
270.295
270.285
270.272
270.257
270.246
270.238
270.234
270.236
270.243
270.257
270.279
270.314
270.367
270.443
270.567
270.773
271.076
271.423
271.677
271.788
271.797
269.9
269.908
269.921
269.924
269.864
269.884
269.918
269.932
269.964
269.978
270.016
270.06
270.082
270.094
270.102
270.106
270.106
270.099
270.085
270.075
270.077
270.098
270.13
270.17
270.19
270.192
270.188
270.182
270.175
270.161
270.139
270.108
270.086
270.073
270.072
270.084
270.094
270.093
270.089
270.086
270.083
270.085
270.096
270.113
270.127
270.134
270.136
270.133
270.123
270.108
270.095
270.086
270.077
270.07
270.071
270.076
270.086
270.105
270.142
270.207
270.311
270.477
270.732
271.072
271.42
271.634
271.703
271.667
268.982
269.365
269.454
269.451
269.352
269.363
269.388
269.432
269.502
269.54
269.599
269.624
269.623
269.643
269.677
269.714
269.731
269.733
269.722
269.704
269.704
269.723
269.762
269.808
269.832
269.832
269.831
269.829
269.827
269.82
269.806
269.788
269.78
269.783
269.797
269.817
269.83
269.832
269.826
269.822
269.822
269.827
269.847
269.873
269.892
269.905
269.91
269.907
269.898
269.885
269.874
269.869
269.863
269.856
269.853
269.857
269.864
269.881
269.919
269.991
270.119
270.323
270.633
271.014
271.357
271.516
271.561
271.509
268.691
269.279
269.291
269.218
269.082
269.132
269.162
269.278
269.366
269.402
269.403
269.366
269.344
269.366
269.416
269.468
269.487
269.49
269.474
269.446
269.444
269.461
269.501
269.545
269.559
269.562
269.557
269.549
269.542
269.533
269.534
269.535
269.54
269.562
269.594
269.62
269.628
269.625
269.608
269.593
269.593
269.599
269.621
269.652
269.673
269.688
269.695
269.694
269.688
269.679
269.67
269.665
269.66
269.648
269.638
269.639
269.645
269.665
269.709
269.791
269.936
270.176
270.534
270.943
271.26
271.367
271.401
271.353
269.474
269.677
269.465
269.142
269.075
269.096
269.141
269.286
269.358
269.381
269.345
269.277
269.259
269.282
269.338
269.394
269.411
269.407
269.374
269.345
269.345
269.358
269.4
269.42
269.419
269.414
269.402
269.391
269.395
269.397
269.401
269.411
269.429
269.465
269.501
269.519
269.521
269.513
269.491
269.469
269.463
269.467
269.485
269.514
269.535
269.549
269.556
269.558
269.558
269.553
269.542
269.534
269.525
269.508
269.492
269.491
269.499
269.522
269.571
269.658
269.818
270.091
270.484
270.902
271.16
271.231
271.261
271.231
269.977
270.156
269.363
269.116
269.159
269.103
269.206
269.32
269.385
269.401
269.351
269.3
269.301
269.332
269.399
269.442
269.449
269.432
269.38
269.355
269.35
269.357
269.384
269.381
269.375
269.363
269.347
269.342
269.347
269.356
269.369
269.386
269.411
269.447
269.473
269.481
269.479
269.459
269.423
269.396
269.388
269.394
269.413
269.44
269.459
269.471
269.48
269.488
269.497
269.495
269.488
269.475
269.465
269.452
269.432
269.427
269.434
269.458
269.508
269.605
269.782
270.084
270.491
270.893
271.079
271.137
271.167
271.156
262.191
269.024
268.959
269.41
269.307
269.203
269.256
269.361
269.418
269.414
269.377
269.378
269.391
269.445
269.513
269.532
269.525
269.486
269.429
269.388
269.367
269.366
269.365
269.362
269.368
269.368
269.359
269.35
269.35
269.36
269.378
269.401
269.434
269.469
269.49
269.489
269.477
269.444
269.397
269.367
269.358
269.363
269.38
269.404
269.421
269.434
269.448
269.463
269.48
269.484
269.481
269.468
269.46
269.448
269.426
269.411
269.417
269.441
269.493
269.602
269.804
270.131
270.542
270.908
271.038
271.092
271.119
271.118
221.043
259.546
268.777
269.965
269.37
269.342
269.435
269.476
269.428
269.417
269.444
269.464
269.486
269.531
269.58
269.599
269.597
269.559
269.499
269.432
269.376
269.36
269.359
269.372
269.393
269.401
269.4
269.392
269.391
269.399
269.419
269.451
269.491
269.521
269.532
269.521
269.487
269.435
269.384
269.357
269.357
269.367
269.383
269.403
269.418
269.429
269.449
269.466
269.488
269.5
269.5
269.493
269.479
269.46
269.43
269.413
269.42
269.447
269.507
269.635
269.873
270.235
270.644
270.952
271.043
271.089
271.103
271.104
182.864
218.361
261.043
269.285
269.192
269.659
269.72
269.553
269.403
269.437
269.522
269.562
269.58
269.589
269.606
269.61
269.617
269.608
269.567
269.491
269.415
269.381
269.374
269.387
269.423
269.449
269.455
269.456
269.459
269.465
269.484
269.523
269.563
269.583
269.582
269.553
269.506
269.448
269.398
269.374
269.378
269.388
269.4
269.416
269.428
269.438
269.462
269.489
269.519
269.539
269.543
269.538
269.517
269.483
269.445
269.43
269.442
269.474
269.548
269.705
269.984
270.381
270.779
271.005
271.067
271.106
271.11
271.112
180.011
182.522
218.947
257.894
269.399
270.269
269.948
269.518
269.412
269.498
269.631
269.68
269.688
269.645
269.6
269.591
269.606
269.625
269.616
269.555
269.474
269.413
269.402
269.413
269.449
269.496
269.517
269.526
269.537
269.541
269.557
269.597
269.624
269.632
269.624
269.586
269.537
269.483
269.435
269.42
269.428
269.436
269.437
269.436
269.434
269.437
269.459
269.497
269.537
269.568
269.58
269.575
269.552
269.513
269.47
269.468
269.482
269.522
269.616
269.806
270.129
270.55
270.912
271.057
271.109
271.137
271.135
271.143
180
180.009
182.487
215.341
260.254
269.142
269.571
269.443
269.461
269.592
269.692
269.762
269.79
269.721
269.583
269.535
269.556
269.6
269.625
269.595
269.546
269.484
269.447
269.454
269.48
269.535
269.575
269.595
269.613
269.615
269.623
269.651
269.659
269.658
269.645
269.606
269.564
269.522
269.484
269.476
269.485
269.485
269.479
269.466
269.451
269.45
269.468
269.512
269.563
269.599
269.611
269.605
269.582
269.54
269.501
269.506
269.527
269.58
269.698
269.928
270.293
270.723
271.022
271.107
271.153
271.174
271.172
271.177
180
180
180.008
181.958
215.586
257.577
269.621
269.737
269.644
269.695
269.644
269.765
269.811
269.738
269.574
269.451
269.465
269.503
269.581
269.603
269.589
269.561
269.514
269.513
269.526
269.57
269.626
269.654
269.674
269.672
269.667
269.672
269.665
269.664
269.648
269.614
269.584
269.558
269.53
269.527
269.533
269.526
269.512
269.493
269.475
269.472
269.49
269.531
269.581
269.616
269.624
269.617
269.593
269.559
269.531
269.538
269.565
269.633
269.782
270.056
270.457
270.875
271.097
271.151
271.19
271.204
271.202
271.197
180
180
180
180.006
181.824
214.237
256.519
268.64
269.507
269.313
269.252
269.532
269.752
269.695
269.601
269.448
269.409
269.411
269.486
269.587
269.615
269.616
269.578
269.569
269.572
269.595
269.652
269.69
269.705
269.7
269.677
269.657
269.636
269.633
269.634
269.617
269.605
269.6
269.582
269.566
269.56
269.544
269.526
269.507
269.493
269.494
269.513
269.545
269.586
269.617
269.62
269.611
269.587
269.562
269.544
269.555
269.591
269.679
269.863
270.182
270.605
270.988
271.144
271.177
271.204
271.208
271.206
271.198
180
180
180
180
180.005
181.666
208.904
255.722
269.972
268.932
268.989
269.359
269.716
269.741
269.715
269.554
269.419
269.374
269.427
269.54
269.612
269.639
269.625
269.598
269.595
269.601
269.647
269.692
269.704
269.695
269.651
269.596
269.566
269.559
269.579
269.607
269.623
269.632
269.625
269.597
269.564
269.54
269.517
269.498
269.494
269.502
269.524
269.55
269.579
269.606
269.606
269.596
269.576
269.562
269.556
269.563
269.607
269.719
269.943
270.304
270.732
271.071
271.168
271.184
271.2
271.198
271.195
271.184
180
180
180
180
180
180.004
180.983
207.865
255.342
266.963
269.415
269.903
269.821
269.8
269.804
269.731
269.569
269.45
269.444
269.517
269.608
269.643
269.643
269.601
269.586
269.59
269.625
269.67
269.679
269.666
269.612
269.537
269.498
269.486
269.507
269.565
269.626
269.645
269.64
269.604
269.548
269.511
269.487
269.478
269.486
269.503
269.529
269.554
269.57
269.585
269.584
269.577
269.562
269.55
269.557
269.572
269.63
269.766
270.027
270.424
270.842
271.126
271.174
271.177
271.182
271.175
271.17
271.158
180
180
180
180
180
180
180.002
180.92
205.539
248.522
269.151
270.6
269.638
269.655
269.705
269.634
269.536
269.514
269.502
269.528
269.583
269.644
269.652
269.621
269.582
269.579
269.597
269.634
269.641
269.625
269.572
269.486
269.437
269.431
269.453
269.517
269.603
269.632
269.623
269.586
269.521
269.475
269.457
269.461
269.481
269.515
269.547
269.572
269.579
269.571
269.562
269.552
269.539
269.536
269.548
269.573
269.647
269.814
270.12
270.542
270.939
271.158
271.165
271.16
271.156
271.144
271.139
271.131
180
180
180
180
180
180
180
180.002
180.658
200.101
248.898
266.3
268.906
269.329
269.459
269.501
269.535
269.557
269.535
269.54
269.571
269.622
269.63
269.614
269.575
269.549
269.559
269.587
269.603
269.597
269.564
269.495
269.424
269.412
269.426
269.48
269.561
269.595
269.58
269.546
269.489
269.442
269.436
269.448
269.478
269.513
269.542
269.565
269.567
269.555
269.546
269.539
269.527
269.53
269.545
269.577
269.669
269.87
270.218
270.647
271.009
271.156
271.155
271.147
271.133
271.122
271.12
271.113
180
180
180
180
180
180
180
180
180.001
180.368
197.667
243.497
266.749
270.591
270.004
269.284
269.463
269.468
269.424
269.429
269.49
269.537
269.558
269.546
269.511
269.478
269.478
269.505
269.537
269.548
269.541
269.513
269.47
269.446
269.46
269.486
269.52
269.542
269.524
269.492
269.46
269.44
269.436
269.452
269.478
269.508
269.532
269.55
269.555
269.547
269.546
269.544
269.535
269.539
269.553
269.59
269.704
269.94
270.322
270.738
271.041
271.133
271.133
271.13
271.12
271.116
271.114
271.107
180
180
180
180
180
180
180
180
180
180
180.274
194.452
238.591
265.645
268.452
269.054
269.279
269.325
269.266
269.286
269.355
269.379
269.422
269.441
269.419
269.377
269.354
269.365
269.404
269.454
269.478
269.479
269.479
269.483
269.496
269.514
269.511
269.501
269.468
269.434
269.424
269.431
269.44
269.461
269.485
269.505
269.52
269.53
269.539
269.546
269.554
269.559
269.554
269.558
269.569
269.617
269.755
270.029
270.433
270.814
271.048
271.098
271.104
271.109
271.107
271.111
271.112
271.109
180
180
180
180
180
180
180
180
180
180
180
180.176
189.746
234.774
262.676
270.163
269.945
269.503
269.388
269.379
269.334
269.316
269.329
269.351
269.345
269.338
269.331
269.325
269.332
269.338
269.361
269.414
269.46
269.503
269.535
269.533
269.52
269.485
269.436
269.404
269.405
269.419
269.442
269.469
269.489
269.5
269.506
269.514
269.528
269.546
269.563
269.571
269.567
269.569
269.585
269.652
269.82
270.133
270.547
270.88
271.041
271.067
271.079
271.092
271.102
271.115
271.122
271.123
180
180
180
180
180
180
180
180
180
180
180
180
180.082
187.753
226.648
263.016
269.134
269.086
269.62
269.717
269.542
269.364
269.336
269.353
269.411
269.485
269.499
269.477
269.403
269.335
269.326
269.353
269.42
269.505
269.56
269.562
269.544
269.496
269.435
269.402
269.401
269.42
269.456
269.484
269.495
269.496
269.498
269.507
269.525
269.55
269.573
269.582
269.579
269.582
269.607
269.695
269.901
270.253
270.659
270.939
271.034
271.049
271.063
271.083
271.103
271.124
271.136
271.136
180
180
180
180
180
180
180
180
180
180
180
180
180
180.056
184.583
220.809
259.257
268.148
270.065
269.964
269.741
269.459
269.357
269.403
269.532
269.685
269.728
269.708
269.602
269.44
269.366
269.372
269.412
269.489
269.553
269.571
269.569
269.54
269.482
269.439
269.425
269.431
269.453
269.479
269.491
269.497
269.505
269.517
269.536
269.562
269.581
269.585
269.582
269.59
269.629
269.747
269.995
270.384
270.77
270.992
271.036
271.045
271.059
271.079
271.101
271.126
271.14
271.141
180
180
180
180
180
180
180
180
180
180
180
180
180
180
180.021
182.738
215.437
254.439
269.001
269.886
269.743
269.542
269.396
269.359
269.463
269.699
269.821
269.804
269.695
269.533
269.433
269.425
269.449
269.506
269.555
269.572
269.575
269.572
269.545
269.512
269.486
269.467
269.468
269.478
269.487
269.502
269.521
269.54
269.563
269.583
269.591
269.592
269.589
269.604
269.664
269.819
270.115
270.514
270.862
271.031
271.045
271.05
271.061
271.079
271.103
271.127
271.143
271.144
180
180
180
180
180
180
180
180
180
180
180
180
180
180
180
180.01
181.676
206.891
249.98
268.444
269.664
269.536
269.367
269.208
269.243
269.433
269.66
269.719
269.658
269.536
269.463
269.473
269.503
269.527
269.549
269.543
269.536
269.543
269.561
269.555
269.539
269.515
269.487
269.475
269.476
269.494
269.527
269.56
269.589
269.605
269.609
269.607
269.608
269.632
269.72
269.919
270.26
270.647
270.935
271.045
271.05
271.052
271.06
271.078
271.101
271.122
271.137
271.136
180
180
180
180
180
180
180
180
180
180
180
180
180
180
180
180
180.004
180.737
199.537
246.565
266.437
269.82
269.466
269.215
269.281
269.407
269.556
269.604
269.52
269.421
269.409
269.44
269.509
269.538
269.53
269.507
269.488
269.482
269.502
269.541
269.545
269.532
269.498
269.466
269.457
269.471
269.504
269.559
269.602
269.618
269.625
269.627
269.628
269.667
269.787
270.032
270.408
270.769
270.99
271.045
271.046
271.05
271.056
271.073
271.091
271.108
271.121
271.12
180
180
180
180
180
180
180
180
180
180
180
180
180
180
180
180
180
180.001
180.357
195.393
236.775
266.066
269.752
269.447
269.55
269.636
269.621
269.527
269.415
269.336
269.337
269.387
269.5
269.56
269.563
269.522
269.466
269.449
269.456
269.488
269.512
269.511
269.497
269.459
269.44
269.446
269.473
269.518
269.576
269.614
269.63
269.638
269.642
269.694
269.851
270.145
270.538
270.863
271.018
271.046
271.044
271.044
271.047
271.06
271.077
271.09
271.103
271.1
180
180
180
180
180
180
180
180
180
180
180
180
180
180
180
180
180
180
180
180.2
188.908
230.975
260.542
268.785
269.873
269.761
269.661
269.564
269.435
269.371
269.353
269.399
269.518
269.59
269.604
269.592
269.537
269.479
269.454
269.462
269.485
269.493
269.491
269.475
269.447
269.438
269.454
269.493
269.536
269.58
269.612
269.631
269.648
269.715
269.909
270.242
270.627
270.905
271.024
271.046
271.045
271.043
271.043
271.049
271.061
271.073
271.083
271.08
180
180
180
180
180
180
180
180
180
180
180
180
180
180
180
180
180
180
180
180
180.068
185.439
220.419
258.497
268.898
269.343
269.661
269.743
269.576
269.492
269.404
269.416
269.495
269.577
269.603
269.589
269.553
269.52
269.489
269.477
269.486
269.487
269.49
269.491
269.488
269.48
269.473
269.483
269.515
269.552
269.587
269.618
269.658
269.75
269.978
270.337
270.691
270.907
271.012
271.051
271.056
271.056
271.052
271.049
271.054
271.061
271.069
271.069
180
180
180
180
180
180
180
180
180
180
180
180
180
180
180
180
180
180
180
180
180
180.028
182.703
210.987
252.826
267.494
270.137
269.928
269.65
269.477
269.404
269.392
269.392
269.408
269.468
269.521
269.534
269.529
269.511
269.487
269.489
269.484
269.486
269.495
269.495
269.505
269.512
269.508
269.518
269.533
269.566
269.613
269.681
269.819
270.078
270.443
270.747
270.907
271.001
271.055
271.072
271.074
271.069
271.058
271.054
271.057
271.066
271.069
180
180
180
180
180
180
180
180
180
180
180
180
180
180
180
180
180
180
180
180
180
180
180.009
181.079
203.084
246.184
266.531
268.834
269.319
269.449
269.457
269.415
269.342
269.342
269.389
269.459
269.491
269.491
269.491
269.485
269.484
269.47
269.466
269.485
269.495
269.503
269.514
269.514
269.518
269.531
269.556
269.614
269.716
269.905
270.216
270.578
270.81
270.92
270.999
271.058
271.085
271.091
271.086
271.073
271.061
271.062
271.072
271.074
180
180
180
180
180
180
180
180
180
180
180
180
180
180
180
180
180
180
180
180
180
180
180
180.002
180.5
194.967
236.388
263.405
270.155
270.052
269.821
269.701
269.633
269.622
269.582
269.541
269.525
269.521
269.508
269.512
269.506
269.479
269.461
269.469
269.485
269.495
269.504
269.504
269.505
269.518
269.547
269.618
269.753
269.99
270.349
270.703
270.874
270.952
271.015
271.065
271.095
271.103
271.104
271.094
271.076
271.077
271.086
271.085
180
180
180
180
180
180
180
180
180
180
180
180
180
180
180
180
180
180
180
180
180
180
180
180
180.001
180.185
188.07
225.445
261.527
268.534
269.346
269.846
269.874
269.832
269.746
269.636
269.572
269.565
269.569
269.588
269.574
269.537
269.498
269.485
269.483
269.479
269.478
269.476
269.48
269.497
269.539
269.634
269.802
270.078
270.468
270.783
270.916
270.983
271.031
271.068
271.093
271.103
271.109
271.109
271.099
271.099
271.102
271.098
180
180
180
180
180
180
180
180
180
180
180
180
180
180
180
180
180
180
180
180
180
180
180
180
180
180
180.055
183.982
215.375
254.022
267.419
270.006
270.009
269.631
269.613
269.547
269.506
269.538
269.639
269.672
269.647
269.602
269.557
269.526
269.501
269.494
269.477
269.463
269.464
269.489
269.542
269.653
269.852
270.17
270.553
270.824
270.953
271.011
271.039
271.061
271.077
271.086
271.098
271.109
271.111
271.115
271.115
271.107
180
180
180
180
180
180
180
180
180
180
180
180
180
180
180
180
180
180
180
180
180
180
180
180
180
180
180
180.017
181.54
205.144
247.056
265.726
268.911
269.099
269.401
269.413
269.418
269.455
269.56
269.61
269.614
269.583
269.551
269.53
269.521
269.512
269.499
269.485
269.484
269.513
269.571
269.694
269.922
270.272
270.627
270.857
270.973
271.007
271.025
271.045
271.055
271.063
271.083
271.099
271.114
271.123
271.121
271.111
180
180
180
180
180
180
180
180
180
180
180
180
180
180
180
180
180
180
180
180
180
180
180
180
180
180
180
180
180.004
180.612
194.904
235.846
262.757
270.013
270.055
269.645
269.397
269.409
269.457
269.492
269.477
269.459
269.457
269.47
269.487
269.494
269.512
269.509
269.51
269.54
269.598
269.738
269.997
270.373
270.715
270.923
271.005
271.003
271.001
271.013
271.03
271.048
271.08
271.104
271.122
271.125
271.12
271.105
180
180
180
180
180
180
180
180
180
180
180
180
180
180
180
180
180
180
180
180
180
180
180
180
180
180
180
180
180
180.001
180.17
188.098
222.438
260.665
267.602
268.844
269.283
269.358
269.441
269.476
269.445
269.419
269.401
269.43
269.444
269.471
269.522
269.526
269.54
269.564
269.618
269.763
270.052
270.461
270.806
271
271.014
270.993
270.979
270.991
271.023
271.058
271.103
271.128
271.14
271.138
271.129
271.109
180
180
180
180
180
180
180
180
180
180
180
180
180
180
180
180
180
180
180
180
180
180
180
180
180
180
180
180
180
180
180
180.059
182.986
212.636
250.078
268.297
270.405
270.066
269.87
269.776
269.666
269.564
269.501
269.464
269.464
269.506
269.563
269.567
269.579
269.589
269.635
269.795
270.116
270.546
270.913
271.032
271.015
270.978
270.969
270.987
271.034
271.091
271.141
271.159
271.157
271.145
271.129
271.111
180
180
180
180
180
180
180
180
180
180
180
180
180
180
180
180
180
180
180
180
180
180
180
180
180
180
180
180
180
180
180
180
180.01
181.159
199.934
241.92
264.028
268.371
269.492
269.751
269.78
269.7
269.583
269.53
269.545
269.592
269.615
269.628
269.617
269.622
269.679
269.866
270.23
270.675
271.017
271.036
271.009
270.976
270.98
271.013
271.076
271.145
271.176
271.174
271.161
271.143
271.126
271.113
180
180
180
180
180
180
180
180
180
180
180
180
180
180
180
180
180
180
180
180
180
180
180
180
180
180
180
180
180
180
180
180
180
180.002
180.34
190.543
228.373
259.149
269.417
269.82
269.674
269.546
269.432
269.472
269.569
269.615
269.625
269.605
269.587
269.611
269.719
269.979
270.391
270.85
271.064
271.043
270.994
270.987
271.008
271.067
271.149
271.202
271.2
271.184
271.157
271.132
271.119
271.111
180
180
180
180
180
180
180
180
180
180
180
180
180
180
180
180
180
180
180
180
180
180
180
180
180
180
180
180
180
180
180
180
180
180
180
180.087
184.547
212.818
254.36
266.774
269.023
269.167
269.107
269.3
269.537
269.551
269.522
269.478
269.48
269.543
269.73
270.095
270.557
270.984
271.038
271.002
270.977
270.995
271.056
271.144
271.217
271.227
271.212
271.18
271.147
271.125
271.116
271.113
180
180
180
180
180
180
180
180
180
180
180
180
180
180
180
180
180
180
180
180
180
180
180
180
180
180
180
180
180
180
180
180
180
180
180
180
180.02
181.24
202.202
241.105
266.03
269.613
269.364
269.729
269.776
269.58
269.401
269.371
269.435
269.564
269.82
270.226
270.655
270.979
270.982
270.96
270.962
271.007
271.097
271.197
271.233
271.228
271.202
271.163
271.137
271.127
271.124
271.121
180
180
180
180
180
180
180
180
180
180
180
180
180
180
180
180
180
180
180
180
180
180
180
180
180
180
180
180
180
180
180
180
180
180
180
180
180
180.003
180.41
191.034
228.5
259.299
268.387
270.573
270.204
269.587
269.304
269.379
269.544
269.753
270.014
270.378
270.723
270.93
270.956
270.956
270.985
271.055
271.138
271.206
271.213
271.199
271.164
271.134
271.13
271.134
271.14
271.138
180
180
180
180
180
180
180
180
180
180
180
180
180
180
180
180
180
180
180
180
180
180
180
180
180
180
180
180
180
180
180
180
180
180
180
180
180
180
180
180.097
184.16
213.772
250.26
268.742
269.228
268.978
269.064
269.393
269.686
269.926
270.158
270.448
270.726
270.896
270.959
270.991
271.058
271.126
271.177
271.208
271.202
271.176
271.141
271.127
271.13
271.147
271.161
271.159
180
180
180
180
180
180
180
180
180
180
180
180
180
180
180
180
180
180
180
180
180
180
180
180
180
180
180
180
180
180
180
180
180
180
180
180
180
180
180
180
180.017
181.325
198.971
239.773
263.04
268.877
269.807
269.926
269.852
269.926
270.165
270.445
270.692
270.865
270.954
271.028
271.127
271.187
271.202
271.216
271.209
271.189
271.161
271.161
271.171
271.188
271.192
271.186
180
180
180
180
180
180
180
180
180
180
180
180
180
180
180
180
180
180
180
180
180
180
180
180
180
180
180
180
180
180
180
180
180
180
180
180
180
180
180
180
180
180.003
180.296
188.93
223.506
256.686
268.753
269.379
269.61
269.845
270.212
270.482
270.693
270.824
270.901
270.995
271.114
271.187
271.232
271.241
271.243
271.24
271.234
271.249
271.274
271.28
271.256
271.227
180
180
180
180
180
180
180
180
180
180
180
180
180
180
180
180
180
180
180
180
180
180
180
180
180
180
180
180
180
180
180
180
180
180
180
180
180
180
180
180
180
180
180
180.065
183.068
206.771
248.136
264.917
269.903
270.387
270.646
270.714
270.794
270.838
270.908
271.019
271.106
271.215
271.266
271.28
271.289
271.307
271.327
271.367
271.401
271.4
271.361
271.286
180
180
180
180
180
180
180
180
180
180
180
180
180
180
180
180
180
180
180
180
180
180
180
180
180
180
180
180
180
180
180
180
180
180
180
180
180
180
180
180
180
180
180
180
180.01
180.689
195.288
231.595
261.296
269.654
270.334
270.615
270.74
270.927
271.106
271.258
271.301
271.382
271.378
271.354
271.362
271.38
271.419
271.474
271.52
271.521
271.473
271.361
180
180
180
180
180
180
180
180
180
180
180
180
180
180
180
180
180
180
180
180
180
180
180
180
180
180
180
180
180
180
180
180
180
180
180
180
180
180
180
180
180
180
180
180
180
180.001
180.18
185.595
214.541
253.943
268.097
270.649
271.151
271.515
271.716
271.688
271.602
271.541
271.476
271.42
271.418
271.438
271.471
271.522
271.573
271.584
271.556
271.467
180
180
180
180
180
180
180
180
180
180
180
180
180
180
180
180
180
180
180
180
180
180
180
180
180
180
180
180
180
180
180
180
180
180
180
180
180
180
180
180
180
180
180
180
180
180
180
180.028
181.399
200.786
241.076
263.199
270.649
271.781
271.846
271.75
271.678
271.555
271.446
271.454
271.495
271.555
271.602
271.646
271.673
271.674
271.646
271.574
180
180
180
180
180
180
180
180
180
180
180
180
180
180
180
180
180
180
180
180
180
180
180
180
180
180
180
180
180
180
180
180
180
180
180
180
180
180
180
180
180
180
180
180
180
180
180
180
180.003
180.336
189.324
221.696
260.862
269.889
271.198
271.577
271.71
271.693
271.709
271.689
271.702
271.76
271.792
271.831
271.821
271.781
271.714
271.685
180
180
180
180
180
180
180
180
180
180
180
180
180
180
180
180
180
180
180
180
180
180
180
180
180
180
180
180
180
180
180
180
180
180
180
180
180
180
180
180
180
180
180
180
180
180
180
180
180
180
180.064
182.572
209.658
248.078
269.038
272.965
272.81
272.342
272.087
271.946
271.916
271.925
271.974
271.999
271.943
271.848
271.768
271.765
180
180
180
180
180
180
180
180
180
180
180
180
180
180
180
180
180
180
180
180
180
180
180
180
180
180
180
180
180
180
180
180
180
180
180
180
180
180
180
180
180
180
180
180
180
180
180
180
180
180
180
180.008
180.806
195.303
234.954
263.948
270.916
271.823
272.012
271.838
271.934
272.106
272.2
272.195
272.066
271.918
271.843
271.846
180
180
180
180
180
180
180
180
180
180
180
180
180
180
180
180
180
180
180
180
180
180
180
180
180
180
180
180
180
180
180
180
180
180
180
180
180
180
180
180
180
180
180
180
180
180
180
180
180
180
180
180
180.001
180.173
186.06
218.059
255.932
271.603
271.711
271.746
272.078
272.383
272.427
272.351
272.147
271.979
271.949
271.972
180
180
180
180
180
180
180
180
180
180
180
180
180
180
180
180
180
180
180
180
180
180
180
180
180
180
180
180
180
180
180
180
180
180
180
180
180
180
180
180
180
180
180
180
180
180
180
180
180
180
180
180
180
180
180.031
181.801
202.049
244.294
265.668
272.067
272.823
272.718
272.559
272.258
271.997
271.954
271.985
272.097
180
180
180
180
180
180
180
180
180
180
180
180
180
180
180
180
180
180
180
180
180
180
180
180
180
180
180
180
180
180
180
180
180
180
180
180
180
180
180
180
180
180
180
180
180
180
180
180
180
180
180
180
180
180
180
180.004
180.377
190.908
224.996
262.55
270.239
271.882
271.957
271.674
271.623
271.724
271.869
272.122
180
180
180
180
180
180
180
180
180
180
180
180
180
180
180
180
180
180
180
180
180
180
180
180
180
180
180
180
180
180
180
180
180
180
180
180
180
180
180
180
180
180
180
180
180
180
180
180
180
180
180
180
180
180
180
180
180
180.092
183.143
211.234
247.887
269.975
273.002
272.389
272.05
272.025
272.049
272.174
180
180
180
180
180
180
180
180
180
180
180
180
180
180
180
180
180
180
180
180
180
180
180
180
180
180
180
180
180
180
180
180
180
180
180
180
180
180
180
180
180
180
180
180
180
180
180
180
180
180
180
180
180
180
180
180
180
180
180.011
180.889
194.792
234.205
262.375
270.654
272.358
272.423
272.199
272.223
180
180
180
180
180
180
180
180
180
180
180
180
180
180
180
180
180
180
180
180
180
180
180
180
180
180
180
180
180
180
180
180
180
180
180
180
180
180
180
180
180
180
180
180
180
180
180
180
180
180
180
180
180
180
180
180
180
180
180
180.001
180.164
185.479
214.679
253.429
269.611
271.282
271.666
272.06
180
180
180
180
180
180
180
180
180
180
180
180
180
180
180
180
180
180