/*--------------------------------*- C++ -*----------------------------------*\
| =========                 |                                                 |
| \\      /  F ield         | OpenFOAM: The Open Source CFD Toolbox           |
|  \\    /   O peration     | Version:  2306                                  |
|   \\  /    A nd           | Website:  www.openfoam.com                      |
|    \\/     M anipulation  |                                                 |
\*---------------------------------------------------------------------------*/
FoamFile
{
    version     2.0;
    format      ascii;
    arch        "LSB;label=32;scalar=64";
    class       volVectorField;
    location    "9e-05";
    object      U;
}
// * * * * * * * * * * * * * * * * * * * * * * * * * * * * * * * * * * * * * //

dimensions      [0 1 -1 0 0 0 0];

internalField   nonuniform List<vector> 
9032
(
(365.367 155.149 0)
(365.598 155.18 0)
(365.805 155.229 0)
(365.852 155.267 0)
(365.805 155.257 0)
(365.663 155.178 0)
(365.454 155.075 0)
(365.313 155.015 0)
(365.299 155.003 0)
(365.317 155.006 0)
(365.321 155.019 0)
(365.303 155.025 0)
(365.272 155.016 0)
(365.22 155.007 0)
(365.155 155.007 0)
(365.142 155.03 0)
(365.168 155.05 0)
(365.185 155.063 0)
(365.201 155.058 0)
(365.215 155.011 0)
(365.194 154.95 0)
(365.133 154.895 0)
(365.018 154.836 0)
(364.899 154.815 0)
(364.83 154.811 0)
(364.796 154.807 0)
(364.762 154.8 0)
(364.722 154.786 0)
(364.687 154.766 0)
(364.655 154.746 0)
(364.64 154.737 0)
(364.64 154.75 0)
(364.659 154.793 0)
(364.71 154.838 0)
(364.774 154.867 0)
(364.846 154.891 0)
(364.921 154.896 0)
(364.976 154.891 0)
(364.979 154.87 0)
(364.943 154.85 0)
(364.86 154.823 0)
(364.756 154.8 0)
(364.691 154.79 0)
(364.655 154.779 0)
(364.639 154.773 0)
(364.636 154.758 0)
(364.631 154.75 0)
(364.629 154.742 0)
(364.643 154.745 0)
(364.663 154.751 0)
(364.692 154.759 0)
(364.736 154.766 0)
(364.772 154.762 0)
(364.773 154.744 0)
(364.749 154.725 0)
(364.706 154.696 0)
(364.633 154.665 0)
(364.544 154.649 0)
(364.467 154.652 0)
(364.405 154.675 0)
(364.345 154.694 0)
(364.244 154.681 0)
(364.046 154.641 0)
(363.672 154.542 0)
(363.009 154.363 0)
(362.063 154.046 0)
(361.104 153.716 0)
(360.132 153.182 0)
(365.17 155.148 0)
(365.31 155.252 0)
(365.408 155.223 0)
(365.448 155.196 0)
(365.408 155.161 0)
(365.295 155.068 0)
(365.136 154.918 0)
(365.063 154.815 0)
(365.065 154.767 0)
(365.136 154.711 0)
(365.206 154.734 0)
(365.202 154.792 0)
(365.148 154.87 0)
(365.052 154.922 0)
(364.977 154.942 0)
(364.984 154.961 0)
(365.015 154.988 0)
(365.038 155.045 0)
(365.035 155.095 0)
(365.021 155.099 0)
(364.975 155.042 0)
(364.901 154.922 0)
(364.837 154.781 0)
(364.795 154.701 0)
(364.767 154.683 0)
(364.739 154.698 0)
(364.697 154.732 0)
(364.643 154.742 0)
(364.6 154.72 0)
(364.578 154.687 0)
(364.576 154.658 0)
(364.597 154.662 0)
(364.636 154.709 0)
(364.673 154.791 0)
(364.705 154.882 0)
(364.767 154.941 0)
(364.822 154.955 0)
(364.854 154.921 0)
(364.877 154.839 0)
(364.862 154.757 0)
(364.814 154.712 0)
(364.749 154.698 0)
(364.69 154.701 0)
(364.652 154.7 0)
(364.623 154.713 0)
(364.602 154.731 0)
(364.586 154.735 0)
(364.58 154.732 0)
(364.593 154.739 0)
(364.609 154.747 0)
(364.629 154.761 0)
(364.657 154.764 0)
(364.68 154.74 0)
(364.685 154.694 0)
(364.667 154.648 0)
(364.636 154.596 0)
(364.593 154.547 0)
(364.543 154.534 0)
(364.486 154.563 0)
(364.422 154.606 0)
(364.347 154.646 0)
(364.22 154.665 0)
(363.989 154.603 0)
(363.566 154.431 0)
(362.861 154.141 0)
(361.901 153.708 0)
(360.974 153.324 0)
(360.164 153.004 0)
(364.24 155.243 0)
(364.432 154.994 0)
(364.605 154.815 0)
(364.644 154.767 0)
(364.621 154.754 0)
(364.526 154.721 0)
(364.388 154.772 0)
(364.332 154.831 0)
(364.325 154.842 0)
(364.392 154.83 0)
(364.524 154.809 0)
(364.585 154.794 0)
(364.591 154.788 0)
(364.555 154.796 0)
(364.531 154.818 0)
(364.549 154.828 0)
(364.616 154.803 0)
(364.74 154.739 0)
(364.805 154.695 0)
(364.787 154.68 0)
(364.701 154.656 0)
(364.575 154.639 0)
(364.498 154.649 0)
(364.458 154.66 0)
(364.445 154.67 0)
(364.434 154.674 0)
(364.408 154.668 0)
(364.375 154.665 0)
(364.334 154.669 0)
(364.315 154.686 0)
(364.32 154.693 0)
(364.353 154.705 0)
(364.408 154.723 0)
(364.477 154.738 0)
(364.553 154.752 0)
(364.619 154.78 0)
(364.654 154.791 0)
(364.659 154.788 0)
(364.649 154.761 0)
(364.628 154.711 0)
(364.601 154.677 0)
(364.567 154.667 0)
(364.531 154.679 0)
(364.495 154.699 0)
(364.466 154.708 0)
(364.446 154.711 0)
(364.432 154.708 0)
(364.428 154.702 0)
(364.441 154.697 0)
(364.459 154.688 0)
(364.48 154.675 0)
(364.499 154.663 0)
(364.511 154.641 0)
(364.515 154.598 0)
(364.505 154.544 0)
(364.482 154.494 0)
(364.462 154.465 0)
(364.448 154.466 0)
(364.421 154.499 0)
(364.378 154.551 0)
(364.294 154.599 0)
(364.122 154.632 0)
(363.824 154.571 0)
(363.285 154.363 0)
(362.453 154.027 0)
(361.42 153.589 0)
(360.534 153.234 0)
(359.992 153.013 0)
(363.487 154.406 0)
(363.803 154.147 0)
(363.836 154.187 0)
(363.78 154.35 0)
(363.694 154.544 0)
(363.667 154.542 0)
(363.671 154.513 0)
(363.693 154.473 0)
(363.712 154.462 0)
(363.774 154.486 0)
(363.883 154.56 0)
(363.956 154.625 0)
(363.97 154.659 0)
(363.967 154.698 0)
(363.98 154.721 0)
(364.018 154.704 0)
(364.088 154.652 0)
(364.207 154.558 0)
(364.306 154.437 0)
(364.325 154.339 0)
(364.283 154.277 0)
(364.227 154.257 0)
(364.169 154.272 0)
(364.131 154.298 0)
(364.117 154.327 0)
(364.108 154.351 0)
(364.084 154.379 0)
(364.048 154.415 0)
(364.011 154.456 0)
(363.996 154.503 0)
(364.007 154.543 0)
(364.047 154.576 0)
(364.11 154.616 0)
(364.184 154.66 0)
(364.247 154.701 0)
(364.302 154.726 0)
(364.325 154.721 0)
(364.336 154.706 0)
(364.333 154.668 0)
(364.319 154.62 0)
(364.303 154.602 0)
(364.298 154.59 0)
(364.296 154.579 0)
(364.286 154.571 0)
(364.276 154.563 0)
(364.259 154.558 0)
(364.239 154.553 0)
(364.23 154.545 0)
(364.238 154.538 0)
(364.251 154.532 0)
(364.266 154.521 0)
(364.285 154.501 0)
(364.303 154.479 0)
(364.31 154.454 0)
(364.304 154.433 0)
(364.293 154.421 0)
(364.29 154.422 0)
(364.299 154.44 0)
(364.3 154.476 0)
(364.269 154.513 0)
(364.179 154.527 0)
(363.987 154.522 0)
(363.614 154.453 0)
(362.965 154.21 0)
(362.013 153.853 0)
(360.953 153.419 0)
(360.153 153.091 0)
(359.758 152.943 0)
(363.075 153.953 0)
(363.259 154.115 0)
(363.309 154.26 0)
(363.347 154.334 0)
(363.361 154.311 0)
(363.426 154.215 0)
(363.462 154.192 0)
(363.445 154.226 0)
(363.432 154.293 0)
(363.491 154.35 0)
(363.61 154.421 0)
(363.683 154.456 0)
(363.704 154.472 0)
(363.713 154.493 0)
(363.723 154.501 0)
(363.744 154.496 0)
(363.78 154.472 0)
(363.843 154.425 0)
(363.9 154.379 0)
(363.918 154.352 0)
(363.902 154.343 0)
(363.878 154.336 0)
(363.853 154.336 0)
(363.83 154.343 0)
(363.816 154.355 0)
(363.806 154.376 0)
(363.787 154.403 0)
(363.758 154.428 0)
(363.733 154.455 0)
(363.721 154.484 0)
(363.738 154.516 0)
(363.784 154.539 0)
(363.857 154.561 0)
(363.942 154.571 0)
(364.013 154.584 0)
(364.06 154.595 0)
(364.07 154.584 0)
(364.068 154.567 0)
(364.065 154.539 0)
(364.063 154.507 0)
(364.076 154.479 0)
(364.102 154.46 0)
(364.117 154.457 0)
(364.111 154.463 0)
(364.093 154.478 0)
(364.065 154.493 0)
(364.039 154.498 0)
(364.025 154.491 0)
(364.027 154.48 0)
(364.04 154.458 0)
(364.059 154.424 0)
(364.083 154.392 0)
(364.104 154.377 0)
(364.112 154.376 0)
(364.112 154.385 0)
(364.111 154.402 0)
(364.121 154.425 0)
(364.145 154.451 0)
(364.167 154.476 0)
(364.146 154.479 0)
(364.052 154.452 0)
(363.833 154.407 0)
(363.388 154.318 0)
(362.636 154.066 0)
(361.598 153.691 0)
(360.554 153.29 0)
(359.859 153.042 0)
(359.543 152.891 0)
(363.389 153.469 0)
(363.383 153.873 0)
(363.308 154.146 0)
(363.244 154.211 0)
(363.281 154.089 0)
(363.399 153.917 0)
(363.49 153.823 0)
(363.484 153.869 0)
(363.453 154.062 0)
(363.447 154.297 0)
(363.503 154.434 0)
(363.548 154.488 0)
(363.57 154.504 0)
(363.577 154.505 0)
(363.581 154.504 0)
(363.593 154.507 0)
(363.616 154.513 0)
(363.652 154.513 0)
(363.684 154.488 0)
(363.696 154.437 0)
(363.699 154.374 0)
(363.714 154.31 0)
(363.726 154.267 0)
(363.727 154.26 0)
(363.719 154.277 0)
(363.711 154.312 0)
(363.691 154.353 0)
(363.66 154.388 0)
(363.632 154.431 0)
(363.617 154.482 0)
(363.62 154.548 0)
(363.653 154.581 0)
(363.718 154.598 0)
(363.791 154.6 0)
(363.868 154.588 0)
(363.918 154.57 0)
(363.931 154.553 0)
(363.927 154.528 0)
(363.93 154.502 0)
(363.937 154.472 0)
(363.954 154.448 0)
(363.973 154.441 0)
(363.982 154.454 0)
(363.976 154.474 0)
(363.956 154.5 0)
(363.925 154.515 0)
(363.901 154.509 0)
(363.889 154.491 0)
(363.893 154.463 0)
(363.907 154.426 0)
(363.926 154.387 0)
(363.949 154.362 0)
(363.961 154.365 0)
(363.966 154.381 0)
(363.966 154.412 0)
(363.97 154.445 0)
(363.985 154.466 0)
(364.012 154.472 0)
(364.035 154.463 0)
(364.025 154.426 0)
(363.932 154.372 0)
(363.685 154.3 0)
(363.173 154.158 0)
(362.322 153.881 0)
(361.223 153.495 0)
(360.218 153.16 0)
(359.647 152.939 0)
(359.411 152.856 0)
(363.581 153.824 0)
(363.377 154.4 0)
(363.37 154.481 0)
(363.36 154.421 0)
(363.412 154.262 0)
(363.439 154.123 0)
(363.422 153.987 0)
(363.423 153.969 0)
(363.47 154.105 0)
(363.505 154.272 0)
(363.525 154.403 0)
(363.518 154.473 0)
(363.496 154.466 0)
(363.505 154.418 0)
(363.528 154.396 0)
(363.547 154.409 0)
(363.568 154.466 0)
(363.583 154.532 0)
(363.569 154.549 0)
(363.528 154.522 0)
(363.499 154.453 0)
(363.507 154.361 0)
(363.557 154.266 0)
(363.62 154.217 0)
(363.648 154.235 0)
(363.651 154.281 0)
(363.639 154.33 0)
(363.62 154.383 0)
(363.6 154.446 0)
(363.585 154.532 0)
(363.569 154.644 0)
(363.576 154.688 0)
(363.625 154.694 0)
(363.684 154.67 0)
(363.747 154.61 0)
(363.807 154.536 0)
(363.842 154.479 0)
(363.853 154.436 0)
(363.857 154.423 0)
(363.851 154.428 0)
(363.848 154.435 0)
(363.856 154.456 0)
(363.863 154.493 0)
(363.856 154.533 0)
(363.835 154.571 0)
(363.801 154.585 0)
(363.774 154.573 0)
(363.755 154.544 0)
(363.753 154.499 0)
(363.766 154.447 0)
(363.788 154.399 0)
(363.817 154.385 0)
(363.833 154.398 0)
(363.845 154.425 0)
(363.855 154.466 0)
(363.866 154.502 0)
(363.877 154.517 0)
(363.89 154.51 0)
(363.896 154.485 0)
(363.874 154.426 0)
(363.783 154.327 0)
(363.525 154.182 0)
(362.945 153.985 0)
(362.012 153.677 0)
(360.881 153.287 0)
(359.957 152.965 0)
(359.505 152.824 0)
(359.319 152.809 0)
(362.92 155.234 0)
(363.317 155.145 0)
(363.825 154.951 0)
(364.064 154.773 0)
(363.862 154.632 0)
(363.637 154.481 0)
(363.437 154.274 0)
(363.502 154.166 0)
(363.692 154.264 0)
(363.798 154.332 0)
(363.816 154.397 0)
(363.714 154.433 0)
(363.596 154.347 0)
(363.588 154.245 0)
(363.635 154.186 0)
(363.706 154.18 0)
(363.749 154.251 0)
(363.736 154.319 0)
(363.667 154.37 0)
(363.562 154.384 0)
(363.49 154.353 0)
(363.477 154.329 0)
(363.513 154.286 0)
(363.604 154.248 0)
(363.66 154.262 0)
(363.667 154.296 0)
(363.658 154.348 0)
(363.641 154.426 0)
(363.625 154.505 0)
(363.622 154.579 0)
(363.613 154.655 0)
(363.593 154.7 0)
(363.6 154.693 0)
(363.624 154.651 0)
(363.658 154.567 0)
(363.715 154.472 0)
(363.758 154.39 0)
(363.764 154.344 0)
(363.763 154.345 0)
(363.757 154.362 0)
(363.752 154.397 0)
(363.763 154.446 0)
(363.785 154.5 0)
(363.799 154.557 0)
(363.782 154.604 0)
(363.746 154.613 0)
(363.708 154.602 0)
(363.67 154.568 0)
(363.647 154.516 0)
(363.648 154.459 0)
(363.669 154.407 0)
(363.706 154.395 0)
(363.735 154.41 0)
(363.754 154.443 0)
(363.767 154.484 0)
(363.775 154.524 0)
(363.775 154.545 0)
(363.767 154.544 0)
(363.754 154.514 0)
(363.725 154.436 0)
(363.616 154.316 0)
(363.305 154.147 0)
(362.666 153.857 0)
(361.686 153.473 0)
(360.56 153.066 0)
(359.758 152.792 0)
(359.413 152.702 0)
(359.224 152.708 0)
(362.151 155.681 0)
(363.747 154.856 0)
(364.573 154.648 0)
(364.597 155.014 0)
(364.013 154.976 0)
(363.607 154.709 0)
(363.492 154.425 0)
(363.764 154.303 0)
(364.121 154.444 0)
(364.208 154.572 0)
(364.125 154.72 0)
(363.919 154.759 0)
(363.741 154.635 0)
(363.726 154.521 0)
(363.791 154.457 0)
(363.907 154.425 0)
(363.955 154.431 0)
(363.93 154.435 0)
(363.848 154.439 0)
(363.722 154.408 0)
(363.657 154.35 0)
(363.663 154.284 0)
(363.715 154.244 0)
(363.792 154.255 0)
(363.835 154.291 0)
(363.844 154.318 0)
(363.836 154.374 0)
(363.824 154.453 0)
(363.814 154.534 0)
(363.802 154.629 0)
(363.782 154.691 0)
(363.743 154.704 0)
(363.722 154.67 0)
(363.722 154.609 0)
(363.735 154.536 0)
(363.769 154.455 0)
(363.794 154.373 0)
(363.794 154.314 0)
(363.788 154.312 0)
(363.789 154.336 0)
(363.795 154.372 0)
(363.812 154.438 0)
(363.841 154.525 0)
(363.858 154.601 0)
(363.837 154.647 0)
(363.796 154.659 0)
(363.745 154.644 0)
(363.691 154.604 0)
(363.649 154.549 0)
(363.638 154.495 0)
(363.654 154.446 0)
(363.691 154.421 0)
(363.731 154.426 0)
(363.751 154.449 0)
(363.756 154.475 0)
(363.753 154.502 0)
(363.74 154.525 0)
(363.717 154.539 0)
(363.682 154.531 0)
(363.619 154.474 0)
(363.469 154.339 0)
(363.097 154.12 0)
(362.364 153.785 0)
(361.334 153.396 0)
(360.27 152.984 0)
(359.631 152.728 0)
(359.388 152.634 0)
(359.194 152.645 0)
(362.685 154.242 0)
(364.972 153.598 0)
(365.307 154.052 0)
(364.68 154.886 0)
(363.663 154.92 0)
(363.333 154.716 0)
(363.596 154.485 0)
(364.2 154.486 0)
(364.55 154.552 0)
(364.552 154.624 0)
(364.428 154.716 0)
(364.206 154.671 0)
(364.051 154.549 0)
(364.05 154.471 0)
(364.111 154.41 0)
(364.208 154.374 0)
(364.21 154.388 0)
(364.155 154.412 0)
(364.056 154.417 0)
(363.937 154.372 0)
(363.901 154.325 0)
(363.906 154.318 0)
(363.975 154.323 0)
(364.06 154.369 0)
(364.097 154.413 0)
(364.106 154.47 0)
(364.089 154.534 0)
(364.078 154.598 0)
(364.077 154.647 0)
(364.067 154.692 0)
(364.027 154.766 0)
(363.964 154.796 0)
(363.91 154.769 0)
(363.889 154.711 0)
(363.894 154.637 0)
(363.923 154.544 0)
(363.942 154.453 0)
(363.945 154.383 0)
(363.936 154.353 0)
(363.939 154.38 0)
(363.954 154.409 0)
(363.973 154.463 0)
(364.009 154.532 0)
(364.03 154.594 0)
(364.016 154.631 0)
(363.975 154.654 0)
(363.918 154.654 0)
(363.854 154.638 0)
(363.803 154.608 0)
(363.772 154.581 0)
(363.77 154.549 0)
(363.794 154.513 0)
(363.822 154.496 0)
(363.833 154.506 0)
(363.824 154.521 0)
(363.808 154.531 0)
(363.785 154.534 0)
(363.755 154.537 0)
(363.708 154.532 0)
(363.612 154.486 0)
(363.387 154.356 0)
(362.902 154.128 0)
(362.089 153.733 0)
(361.055 153.324 0)
(360.102 152.937 0)
(359.621 152.749 0)
(359.445 152.661 0)
(359.262 152.679 0)
(365.726 153.087 0)
(366.129 152.957 0)
(365.755 154.284 0)
(364.09 155.13 0)
(363.235 154.901 0)
(363.35 154.647 0)
(364.139 154.47 0)
(364.661 154.541 0)
(364.732 154.552 0)
(364.636 154.576 0)
(364.465 154.612 0)
(364.272 154.639 0)
(364.206 154.63 0)
(364.219 154.603 0)
(364.257 154.569 0)
(364.313 154.522 0)
(364.305 154.485 0)
(364.264 154.458 0)
(364.166 154.405 0)
(364.075 154.36 0)
(364.063 154.35 0)
(364.102 154.329 0)
(364.203 154.38 0)
(364.29 154.447 0)
(364.337 154.475 0)
(364.352 154.522 0)
(364.329 154.587 0)
(364.307 154.655 0)
(364.282 154.749 0)
(364.247 154.81 0)
(364.212 154.832 0)
(364.16 154.815 0)
(364.104 154.757 0)
(364.079 154.703 0)
(364.082 154.656 0)
(364.108 154.594 0)
(364.123 154.528 0)
(364.122 154.482 0)
(364.109 154.458 0)
(364.116 154.473 0)
(364.138 154.493 0)
(364.158 154.522 0)
(364.187 154.566 0)
(364.207 154.618 0)
(364.195 154.666 0)
(364.16 154.706 0)
(364.11 154.724 0)
(364.061 154.721 0)
(364.022 154.708 0)
(363.987 154.695 0)
(363.969 154.667 0)
(363.971 154.616 0)
(363.978 154.554 0)
(363.972 154.53 0)
(363.95 154.532 0)
(363.915 154.552 0)
(363.874 154.576 0)
(363.822 154.596 0)
(363.749 154.596 0)
(363.611 154.53 0)
(363.309 154.375 0)
(362.729 154.081 0)
(361.825 153.665 0)
(360.826 153.262 0)
(360.02 152.933 0)
(359.696 152.8 0)
(359.563 152.703 0)
(359.401 152.725 0)
(367.899 152.601 0)
(365.872 153.014 0)
(365.02 154.993 0)
(363.19 154.8 0)
(363.023 154.427 0)
(363.915 154.448 0)
(364.702 154.866 0)
(364.862 154.86 0)
(364.685 154.696 0)
(364.521 154.605 0)
(364.354 154.542 0)
(364.263 154.58 0)
(364.277 154.655 0)
(364.306 154.675 0)
(364.345 154.685 0)
(364.359 154.65 0)
(364.322 154.59 0)
(364.265 154.521 0)
(364.16 154.466 0)
(364.099 154.444 0)
(364.11 154.437 0)
(364.173 154.44 0)
(364.288 154.48 0)
(364.374 154.521 0)
(364.438 154.576 0)
(364.443 154.633 0)
(364.414 154.696 0)
(364.393 154.766 0)
(364.374 154.814 0)
(364.327 154.829 0)
(364.273 154.841 0)
(364.217 154.819 0)
(364.169 154.772 0)
(364.159 154.722 0)
(364.188 154.667 0)
(364.235 154.608 0)
(364.271 154.553 0)
(364.283 154.492 0)
(364.27 154.425 0)
(364.278 154.413 0)
(364.298 154.421 0)
(364.311 154.444 0)
(364.331 154.488 0)
(364.355 154.534 0)
(364.345 154.574 0)
(364.324 154.619 0)
(364.291 154.659 0)
(364.259 154.695 0)
(364.231 154.727 0)
(364.197 154.744 0)
(364.166 154.732 0)
(364.137 154.68 0)
(364.119 154.616 0)
(364.093 154.579 0)
(364.052 154.573 0)
(364.002 154.596 0)
(363.957 154.615 0)
(363.897 154.62 0)
(363.797 154.603 0)
(363.602 154.513 0)
(363.21 154.329 0)
(362.477 154.044 0)
(361.503 153.614 0)
(360.583 153.25 0)
(359.963 152.971 0)
(359.765 152.893 0)
(359.656 152.812 0)
(359.511 152.835 0)
(393.191 144.077 0)
(363.344 155.691 0)
(363.866 156.119 0)
(362.883 154.048 0)
(363.927 154.049 0)
(364.811 154.8 0)
(364.905 155.192 0)
(364.68 155.106 0)
(364.435 154.921 0)
(364.307 154.664 0)
(364.241 154.499 0)
(364.256 154.514 0)
(364.253 154.644 0)
(364.286 154.773 0)
(364.338 154.788 0)
(364.343 154.738 0)
(364.327 154.664 0)
(364.265 154.561 0)
(364.164 154.508 0)
(364.111 154.515 0)
(364.122 154.522 0)
(364.198 154.567 0)
(364.312 154.589 0)
(364.399 154.616 0)
(364.453 154.667 0)
(364.467 154.732 0)
(364.448 154.791 0)
(364.418 154.845 0)
(364.389 154.843 0)
(364.333 154.828 0)
(364.267 154.803 0)
(364.212 154.764 0)
(364.174 154.721 0)
(364.178 154.688 0)
(364.226 154.661 0)
(364.284 154.624 0)
(364.334 154.58 0)
(364.359 154.529 0)
(364.351 154.463 0)
(364.361 154.43 0)
(364.378 154.425 0)
(364.39 154.429 0)
(364.41 154.442 0)
(364.44 154.462 0)
(364.437 154.5 0)
(364.425 154.566 0)
(364.412 154.649 0)
(364.39 154.716 0)
(364.369 154.78 0)
(364.336 154.818 0)
(364.294 154.82 0)
(364.24 154.774 0)
(364.212 154.715 0)
(364.191 154.647 0)
(364.147 154.595 0)
(364.087 154.567 0)
(364.03 154.559 0)
(363.955 154.545 0)
(363.822 154.519 0)
(363.567 154.435 0)
(363.061 154.256 0)
(362.205 153.927 0)
(361.188 153.476 0)
(360.357 153.209 0)
(359.922 153.004 0)
(359.817 152.964 0)
(359.736 152.905 0)
(359.608 152.917 0)
(499.656 75.4884 0)
(379.625 145.867 0)
(366.325 154.433 0)
(363.381 153.724 0)
(364.956 154.652 0)
(365.273 155.169 0)
(364.807 155.189 0)
(364.378 155.134 0)
(364.26 154.971 0)
(364.263 154.653 0)
(364.29 154.465 0)
(364.254 154.473 0)
(364.219 154.641 0)
(364.223 154.813 0)
(364.267 154.833 0)
(364.309 154.766 0)
(364.337 154.653 0)
(364.297 154.553 0)
(364.223 154.537 0)
(364.172 154.576 0)
(364.154 154.651 0)
(364.207 154.708 0)
(364.314 154.73 0)
(364.427 154.725 0)
(364.509 154.733 0)
(364.536 154.77 0)
(364.523 154.818 0)
(364.478 154.837 0)
(364.427 154.819 0)
(364.35 154.785 0)
(364.26 154.739 0)
(364.192 154.694 0)
(364.165 154.664 0)
(364.182 154.655 0)
(364.239 154.653 0)
(364.304 154.644 0)
(364.367 154.643 0)
(364.403 154.617 0)
(364.392 154.552 0)
(364.396 154.496 0)
(364.41 154.471 0)
(364.418 154.448 0)
(364.438 154.432 0)
(364.466 154.443 0)
(364.466 154.485 0)
(364.459 154.555 0)
(364.472 154.66 0)
(364.472 154.741 0)
(364.467 154.821 0)
(364.442 154.869 0)
(364.4 154.877 0)
(364.347 154.836 0)
(364.302 154.754 0)
(364.272 154.654 0)
(364.221 154.576 0)
(364.152 154.526 0)
(364.091 154.507 0)
(364 154.481 0)
(363.835 154.436 0)
(363.507 154.325 0)
(362.88 154.114 0)
(361.905 153.75 0)
(360.849 153.334 0)
(360.146 153.157 0)
(359.873 153.05 0)
(359.82 153.033 0)
(359.771 152.985 0)
(359.648 152.991 0)
(574.504 5.68483 0)
(494.823 70.7206 0)
(395.992 138.51 0)
(363.322 154.764 0)
(364.931 155.2 0)
(365.371 154.534 0)
(364.998 154.848 0)
(364.473 155.122 0)
(364.324 154.984 0)
(364.276 154.737 0)
(364.308 154.49 0)
(364.297 154.5 0)
(364.236 154.646 0)
(364.141 154.788 0)
(364.147 154.814 0)
(364.206 154.747 0)
(364.281 154.607 0)
(364.302 154.522 0)
(364.301 154.533 0)
(364.293 154.602 0)
(364.258 154.735 0)
(364.274 154.823 0)
(364.338 154.829 0)
(364.417 154.801 0)
(364.518 154.761 0)
(364.573 154.779 0)
(364.558 154.81 0)
(364.516 154.804 0)
(364.441 154.78 0)
(364.326 154.74 0)
(364.21 154.685 0)
(364.15 154.64 0)
(364.14 154.629 0)
(364.179 154.643 0)
(364.252 154.672 0)
(364.33 154.696 0)
(364.405 154.723 0)
(364.44 154.714 0)
(364.413 154.643 0)
(364.406 154.56 0)
(364.409 154.525 0)
(364.406 154.485 0)
(364.421 154.453 0)
(364.448 154.456 0)
(364.451 154.505 0)
(364.451 154.589 0)
(364.472 154.706 0)
(364.486 154.808 0)
(364.487 154.899 0)
(364.47 154.945 0)
(364.442 154.944 0)
(364.399 154.896 0)
(364.352 154.795 0)
(364.313 154.672 0)
(364.254 154.555 0)
(364.194 154.485 0)
(364.132 154.459 0)
(364.019 154.42 0)
(363.808 154.353 0)
(363.394 154.213 0)
(362.639 153.971 0)
(361.564 153.582 0)
(360.525 153.201 0)
(360.001 153.093 0)
(359.845 153.051 0)
(359.796 153.056 0)
(359.757 153.034 0)
(359.652 153.05 0)
(579.973 0.0305827 0)
(574.948 4.8518 0)
(499.79 70.544 0)
(380.361 145.954 0)
(369.279 153.096 0)
(366.129 154.306 0)
(365.217 155.225 0)
(364.425 155.586 0)
(364.206 155.14 0)
(364.186 154.761 0)
(364.401 154.466 0)
(364.461 154.482 0)
(364.387 154.546 0)
(364.214 154.642 0)
(364.105 154.677 0)
(364.138 154.637 0)
(364.187 154.559 0)
(364.287 154.499 0)
(364.383 154.525 0)
(364.432 154.592 0)
(364.418 154.733 0)
(364.363 154.837 0)
(364.371 154.835 0)
(364.392 154.798 0)
(364.461 154.756 0)
(364.548 154.747 0)
(364.555 154.75 0)
(364.513 154.737 0)
(364.423 154.72 0)
(364.274 154.687 0)
(364.14 154.643 0)
(364.1 154.619 0)
(364.113 154.616 0)
(364.182 154.658 0)
(364.28 154.712 0)
(364.374 154.751 0)
(364.451 154.787 0)
(364.472 154.767 0)
(364.423 154.673 0)
(364.407 154.578 0)
(364.399 154.543 0)
(364.396 154.502 0)
(364.408 154.48 0)
(364.418 154.508 0)
(364.409 154.58 0)
(364.408 154.683 0)
(364.436 154.804 0)
(364.463 154.911 0)
(364.465 154.996 0)
(364.458 155.024 0)
(364.444 155.009 0)
(364.414 154.951 0)
(364.38 154.836 0)
(364.335 154.696 0)
(364.264 154.547 0)
(364.22 154.464 0)
(364.138 154.425 0)
(363.995 154.376 0)
(363.727 154.291 0)
(363.218 154.118 0)
(362.328 153.842 0)
(361.192 153.427 0)
(360.224 153.094 0)
(359.885 153.022 0)
(359.828 153.045 0)
(359.794 153.083 0)
(359.772 153.077 0)
(359.673 153.107 0)
(580 1.08544e-05 0)
(579.978 0.0260659 0)
(575.055 4.74681 0)
(500.686 65.4955 0)
(401.42 136.485 0)
(364.85 156.621 0)
(363.376 155.926 0)
(364.061 154.845 0)
(364.083 154.64 0)
(364.191 154.422 0)
(364.57 154.489 0)
(364.695 154.416 0)
(364.625 154.363 0)
(364.461 154.414 0)
(364.177 154.638 0)
(364.04 154.7 0)
(364.033 154.655 0)
(364.184 154.55 0)
(364.432 154.512 0)
(364.547 154.562 0)
(364.575 154.655 0)
(364.471 154.732 0)
(364.365 154.742 0)
(364.33 154.724 0)
(364.346 154.692 0)
(364.454 154.665 0)
(364.511 154.651 0)
(364.473 154.64 0)
(364.386 154.634 0)
(364.226 154.624 0)
(364.092 154.61 0)
(364.069 154.608 0)
(364.101 154.627 0)
(364.202 154.696 0)
(364.326 154.748 0)
(364.42 154.787 0)
(364.484 154.815 0)
(364.476 154.79 0)
(364.411 154.688 0)
(364.381 154.585 0)
(364.37 154.537 0)
(364.376 154.488 0)
(364.392 154.487 0)
(364.392 154.543 0)
(364.374 154.636 0)
(364.368 154.757 0)
(364.391 154.874 0)
(364.426 154.982 0)
(364.431 155.054 0)
(364.436 155.063 0)
(364.437 155.04 0)
(364.415 154.978 0)
(364.385 154.863 0)
(364.332 154.708 0)
(364.259 154.546 0)
(364.211 154.465 0)
(364.116 154.411 0)
(363.939 154.349 0)
(363.6 154.235 0)
(362.978 154.018 0)
(361.958 153.707 0)
(360.809 153.273 0)
(359.979 153 0)
(359.789 152.975 0)
(359.798 153.04 0)
(359.788 153.107 0)
(359.771 153.122 0)
(359.683 153.162 0)
(580 3.86109e-09 0)
(580 9.50901e-06 0)
(579.979 0.0240195 0)
(575.862 3.97925 0)
(512.292 63.6508 0)
(380.845 145.143 0)
(366.263 151.103 0)
(365.358 152.652 0)
(364.423 154.637 0)
(364.274 155.103 0)
(364.532 155.13 0)
(364.699 154.654 0)
(364.762 154.28 0)
(364.762 154.331 0)
(364.425 154.752 0)
(363.938 155.011 0)
(363.819 154.962 0)
(363.945 154.759 0)
(364.359 154.551 0)
(364.604 154.523 0)
(364.64 154.559 0)
(364.543 154.588 0)
(364.329 154.597 0)
(364.232 154.593 0)
(364.205 154.567 0)
(364.297 154.548 0)
(364.403 154.53 0)
(364.387 154.531 0)
(364.325 154.546 0)
(364.187 154.564 0)
(364.06 154.611 0)
(364.048 154.632 0)
(364.099 154.665 0)
(364.235 154.732 0)
(364.375 154.767 0)
(364.459 154.797 0)
(364.507 154.809 0)
(364.477 154.77 0)
(364.387 154.656 0)
(364.336 154.541 0)
(364.327 154.483 0)
(364.339 154.451 0)
(364.356 154.471 0)
(364.358 154.536 0)
(364.343 154.637 0)
(364.333 154.759 0)
(364.349 154.866 0)
(364.368 154.974 0)
(364.375 155.04 0)
(364.388 155.041 0)
(364.399 155.016 0)
(364.392 154.953 0)
(364.368 154.843 0)
(364.325 154.709 0)
(364.256 154.567 0)
(364.193 154.478 0)
(364.077 154.416 0)
(363.855 154.335 0)
(363.432 154.181 0)
(362.681 153.915 0)
(361.56 153.557 0)
(360.434 153.143 0)
(359.799 152.94 0)
(359.722 152.967 0)
(359.758 153.067 0)
(359.761 153.144 0)
(359.751 153.166 0)
(359.676 153.201 0)
(580 8.58827e-13 0)
(580 3.32337e-09 0)
(580 8.73106e-06 0)
(579.985 0.016545 0)
(576.325 3.81736 0)
(507.013 61.0516 0)
(400.348 136.015 0)
(367.784 153.617 0)
(363.566 156.439 0)
(362.908 156.928 0)
(363.139 156.444 0)
(363.874 154.926 0)
(364.82 154.194 0)
(365.06 154.431 0)
(364.667 154.993 0)
(363.874 155.213 0)
(363.653 155.109 0)
(363.799 154.927 0)
(364.219 154.682 0)
(364.575 154.534 0)
(364.609 154.515 0)
(364.501 154.496 0)
(364.248 154.487 0)
(364.099 154.486 0)
(364.052 154.462 0)
(364.114 154.445 0)
(364.247 154.442 0)
(364.276 154.457 0)
(364.244 154.485 0)
(364.146 154.544 0)
(364.034 154.621 0)
(364.022 154.692 0)
(364.083 154.762 0)
(364.229 154.818 0)
(364.391 154.813 0)
(364.47 154.808 0)
(364.509 154.786 0)
(364.476 154.705 0)
(364.377 154.586 0)
(364.279 154.475 0)
(364.271 154.416 0)
(364.293 154.4 0)
(364.31 154.431 0)
(364.319 154.499 0)
(364.309 154.597 0)
(364.292 154.713 0)
(364.301 154.805 0)
(364.303 154.911 0)
(364.309 154.974 0)
(364.325 154.975 0)
(364.341 154.954 0)
(364.353 154.898 0)
(364.347 154.805 0)
(364.33 154.695 0)
(364.266 154.554 0)
(364.19 154.454 0)
(364.038 154.391 0)
(363.759 154.294 0)
(363.238 154.106 0)
(362.341 153.799 0)
(361.155 153.414 0)
(360.099 153.055 0)
(359.68 152.927 0)
(359.666 152.987 0)
(359.714 153.093 0)
(359.727 153.167 0)
(359.722 153.193 0)
(359.659 153.214 0)
(580 -2.5378e-13 0)
(580 1.93609e-13 0)
(580 2.59234e-09 0)
(580 6.40803e-06 0)
(579.986 0.0144807 0)
(576.509 3.53179 0)
(520.205 52.3805 0)
(406.448 131.138 0)
(365.979 151.936 0)
(362.201 156.945 0)
(362.059 155.714 0)
(363.256 154.17 0)
(364.844 154.064 0)
(365.131 154.592 0)
(364.678 155.058 0)
(363.929 155.178 0)
(363.72 155.087 0)
(363.901 154.938 0)
(364.206 154.781 0)
(364.475 154.667 0)
(364.505 154.583 0)
(364.396 154.537 0)
(364.184 154.479 0)
(364.016 154.437 0)
(363.971 154.401 0)
(363.993 154.372 0)
(364.111 154.373 0)
(364.174 154.412 0)
(364.163 154.446 0)
(364.106 154.533 0)
(364 154.686 0)
(363.952 154.835 0)
(364.013 154.914 0)
(364.138 154.961 0)
(364.305 154.923 0)
(364.439 154.831 0)
(364.475 154.752 0)
(364.449 154.645 0)
(364.368 154.527 0)
(364.266 154.429 0)
(364.244 154.342 0)
(364.254 154.349 0)
(364.275 154.379 0)
(364.288 154.435 0)
(364.283 154.516 0)
(364.266 154.614 0)
(364.255 154.702 0)
(364.239 154.817 0)
(364.25 154.891 0)
(364.276 154.896 0)
(364.302 154.879 0)
(364.331 154.842 0)
(364.337 154.775 0)
(364.333 154.684 0)
(364.288 154.535 0)
(364.18 154.431 0)
(364.003 154.361 0)
(363.654 154.234 0)
(363.014 154.006 0)
(361.981 153.671 0)
(360.759 153.284 0)
(359.845 152.997 0)
(359.604 152.92 0)
(359.608 152.987 0)
(359.656 153.107 0)
(359.673 153.183 0)
(359.675 153.211 0)
(359.628 153.22 0)
(580 -3.5692e-13 0)
(580 -7.40168e-13 0)
(580 -1.46297e-13 0)
(580 1.95504e-09 0)
(580 5.59737e-06 0)
(579.989 0.0117636 0)
(577.949 2.09615 0)
(519.53 50.1575 0)
(409.445 128.301 0)
(368.436 158.755 0)
(362.827 154.482 0)
(364.107 152.455 0)
(364.851 153.749 0)
(364.824 154.747 0)
(364.352 154.922 0)
(364.143 154.75 0)
(364.249 154.661 0)
(364.305 154.734 0)
(364.326 154.783 0)
(364.366 154.78 0)
(364.397 154.705 0)
(364.334 154.615 0)
(364.209 154.489 0)
(364.057 154.387 0)
(363.991 154.353 0)
(363.972 154.335 0)
(364.033 154.358 0)
(364.103 154.416 0)
(364.107 154.476 0)
(364.081 154.573 0)
(363.996 154.737 0)
(363.909 154.919 0)
(363.938 155.006 0)
(364.012 155.039 0)
(364.141 155.012 0)
(364.307 154.884 0)
(364.404 154.74 0)
(364.399 154.638 0)
(364.356 154.518 0)
(364.292 154.394 0)
(364.221 154.324 0)
(364.212 154.332 0)
(364.237 154.349 0)
(364.247 154.384 0)
(364.246 154.453 0)
(364.236 154.534 0)
(364.225 154.607 0)
(364.223 154.699 0)
(364.228 154.803 0)
(364.253 154.836 0)
(364.284 154.828 0)
(364.324 154.802 0)
(364.338 154.756 0)
(364.34 154.673 0)
(364.308 154.508 0)
(364.179 154.392 0)
(363.959 154.31 0)
(363.523 154.16 0)
(362.748 153.896 0)
(361.599 153.534 0)
(360.388 153.166 0)
(359.688 152.943 0)
(359.559 152.911 0)
(359.557 152.994 0)
(359.604 153.1 0)
(359.625 153.162 0)
(359.639 153.187 0)
(359.6 153.196 0)
(580 -9.09606e-13 0)
(580 -1.01384e-12 0)
(580 -1.05275e-12 0)
(580 -6.29693e-13 0)
(580 1.41183e-09 0)
(580 3.711e-06 0)
(579.995 0.00534191 0)
(577.929 2.02269 0)
(531.462 43.6433 0)
(408.273 133.094 0)
(374.534 146.645 0)
(365.971 152.215 0)
(363.627 154.675 0)
(363.284 154.882 0)
(363.663 154.377 0)
(364.444 153.979 0)
(364.744 154.129 0)
(364.707 154.46 0)
(364.487 154.787 0)
(364.424 154.888 0)
(364.428 154.841 0)
(364.456 154.646 0)
(364.408 154.44 0)
(364.278 154.307 0)
(364.124 154.299 0)
(364.061 154.318 0)
(364.056 154.353 0)
(364.105 154.415 0)
(364.127 154.485 0)
(364.122 154.584 0)
(364.06 154.739 0)
(363.949 154.904 0)
(363.915 154.997 0)
(363.943 155.022 0)
(364.012 155.001 0)
(364.147 154.894 0)
(364.306 154.737 0)
(364.359 154.621 0)
(364.362 154.517 0)
(364.332 154.396 0)
(364.236 154.349 0)