/*--------------------------------*- C++ -*----------------------------------*\
| =========                 |                                                 |
| \\      /  F ield         | OpenFOAM: The Open Source CFD Toolbox           |
|  \\    /   O peration     | Version:  2306                                  |
|   \\  /    A nd           | Website:  www.openfoam.com                      |
|    \\/     M anipulation  |                                                 |
\*---------------------------------------------------------------------------*/
FoamFile
{
    version     2.0;
    format      ascii;
    arch        "LSB;label=32;scalar=64";
    class       volScalarField;
    location    "5e-05";
    object      p;
}
// * * * * * * * * * * * * * * * * * * * * * * * * * * * * * * * * * * * * * //

dimensions      [1 -1 -2 0 0 0 0];

internalField   nonuniform List<scalar> 
9032
(
109674
109591
109534
109521
109547
109575
109593
109595
109582
109568
109556
109552
109551
109555
109566
109588
109641
109816
110192
110816
111814
112989
113818
114297
114553
114656
114673
114649
114606
114555
114500
114437
114361
114265
114149
114015
113867
113711
113550
113385
113214
113037
112851
112660
112467
112273
112079
111886
111694
111506
111323
111144
110963
110779
110589
110395
110199
110002
109809
109617
109428
109243
109074
108915
108760
108604
108425
108262
109624
109539
109515
109541
109577
109600
109605
109593
109574
109561
109555
109556
109555
109561
109570
109598
109680
109908
110360
111131
112313
113500
114231
114579
114702
114720
114696
114641
114586
114534
114476
114405
114316
114210
114089
113956
113812
113660
113499
113328
113149
112965
112776
112584
112391
112200
112009
111820
111631
111443
111258
111076
110895
110713
110527
110335
110140
109944
109750
109561
109375
109191
109012
108840
108672
108503
108324
108169
109547
109567
109573
109582
109578
109574
109569
109564
109561
109561
109559
109558
109555
109559
109569
109609
109713
109970
110495
111451
112731
113796
114358
114610
114669
114670
114648
114622
114587
114537
114470
114384
114283
114170
114050
113921
113782
113633
113471
113297
113113
112924
112733
112542
112352
112164
111977
111790
111602
111413
111223
111037
110856
110676
110493
110305
110113
109918
109724
109535
109349
109166
108984
108802
108619
108439
108260
108118
109636
109644
109616
109586
109572
109569
109571
109573
109574
109572
109571
109557
109555
109557
109574
109615
109735
110049
110710
111850
113134
114036
114447
114625
114674
114682
114665
114636
114589
114526
114447
114349
114237
114122
114003
113879
113743
113594
113430
113252
113063
112869
112676
112487
112300
112116
111933
111750
111563
111373
111179
110989
110809
110634
110457
110274
110086
109893
109698
109510
109329
109146
108958
108762
108563
108370
108185
108044
109653
109642
109601
109563
109548
109549
109556
109564
109570
109567
109565
109565
109558
109564
109587
109642
109804
110184
110996
112288
113503
114211
114520
114631
114673
114679
114667
114637
114583
114507
114414
114308
114195
114080
113962
113841
113709
113560
113396
113217
113027
112829
112633
112443
112258
112077
111898
111718
111533
111343
111147
110949
110766
110594
110421
110243
110060
109870
109675
109484
109300
109117
108927
108731
108531
108333
108135
107975
109702
109662
109603
109555
109546
109553
109566
109581
109587
109581
109574
109561
109556
109562
109589
109654
109849
110370
111362
112723
113804
114326
114555
114646
114689
114694
114681
114647
114584
114494
114385
114271
114155
114038
113915
113790
113655
113507
113343
113165
112975
112774
112570
112376
112191
112013
111840
111664
111483
111291
111092
110888
110693
110520
110350
110178
110000
109815
109624
109429
109239
109054
108867
108675
108482
108288
108089
107909
109633
109603
109557
109541
109549
109555
109568
109580
109577
109568
109558
109554
109556
109567
109593
109677
109935
110596
111757
113127
114046
114391
114556
114646
114689
114693
114679
114637
114564
114465
114351
114236
114120
114000
113874
113742
113601
113448
113284
113108
112919
112718
112512
112311
112122
111943
111772
111605
111431
111247
111050
110836
110622
110436
110265
110097
109925
109748
109561
109360
109161
108973
108796
108622
108446
108265
108066
107855
109609
109637
109587
109578
109565
109552
109563
109579
109583
109578
109569
109564
109562
109565
109594
109707
110058
110872
112200
113478
114204
114461
114595
114680
114710
114705
114678
114620
114533
114429
114318
114209
114097
113972
113833
113681
113522
113361
113197
113027
112848
112657
112451
112237
112038
111856
111683
111516
111349
111174
110989
110784
110559
110350
110172
110008
109843
109671
109490
109294
109080
108877
108698
108530
108367
108199
108017
107838
109611
109645
109607
109582
109556
109559
109573
109574
109575
109574
109565
109552
109552
109563
109607
109766
110227
111204
112626
113782
114339
114532
114629
114688
114701
114690
114656
114594
114508
114406
114298
114187
114069
113936
113787
113623
113450
113277
113109
112945
112775
112595
112402
112191
111976
111782
111608
111445
111283
111111
110927
110731
110513
110290
110103
109936
109774
109604
109425
109233
109023
108800
108597
108423
108260
108105
107942
107798
109670
109601
109625
109592
109536
109541
109561
109574
109574
109577
109569
109561
109561
109572
109630
109838
110433
111582
113052
114045
114437
114588
114661
114689
114692
114676
114639
114577
114494
114392
114280
114164
114039
113902
113749
113583
113406
113225
113051
112884
112715
112538
112353
112155
111945
111740
111558
111389
111226
111057
110878
110689
110481
110253
110044
109868
109704
109535
109358
109173
108972
108752
108528
108332
108165
108007
107859
107741
109705
109563
109664
109591
109538
109551
109553
109564
109572
109569
109561
109563
109575
109598
109677
109953
110692
112014
113455
114246
114497
114607
114662
114677
114676
114662
114627
114567
114486
114387
114275
114154
114021
113876
113717
113546
113365
113178
112994
112829
112667
112498
112320
112133
111933
111725
111528
111352
111186
111020
110840
110651
110451
110233
110007
109814
109642
109476
109299
109111
108915
108706
108482
108260
108081
107924
107783
107687
108519
109657
109732
109532
109549
109562
109547
109562
109578
109573
109565
109565
109577
109608
109721
110094
111007
112497
113792
114382
114551
114622
114653
114668
114675
114665
114627
114561
114481
114383
114269
114140
113993
113833
113666
113496
113323
113141
112951
112775
112612
112449
112278
112101
111917
111721
111517
111328
111153
110983
110805
110619
110426
110219
109994
109772
109584
109409
109230
109044
108860
108669
108462
108240
108027
107855
107696
107597
97093.8
109994
109572
109464
109617
109563
109539
109571
109587
109573
109571
109577
109586
109622
109776
110270
111377
112958
114033
114437
114554
114609
114635
114649
114659
114651
114613
114561
114488
114389
114264
114115
113956
113794
113634
113473
113309
113129
112929
112737
112569
112410
112248
112079
111906
111719
111512
111302
111113
110934
110756
110572
110383
110188
109978
109743
109513
109320
109149
108981
108802
108623
108442
108246
108028
107813
107623
107512
57768.2
99431.1
108463
109666
109732
109501
109560
109584
109567
109558
109576
109579
109579
109628
109840
110483
111792
113337
114186
114448
114542
114601
114636
114660
114673
114667
114626
114557
114470
114364
114230
114079
113928
113780
113627
113467
113299
113120
112922
112717
112540
112382
112225
112059
111885
111698
111490
111263
111058
110877
110701
110522
110340
110152
109948
109718
109466
109243
109060
108896
108740
108574
108408
108230
108038
107819
107583
107438
33628.4
57435.2
96530.3
109998
109602
109390
109625
109564
109522
109552
109583
109572
109571
109648
109944
110754
112215
113612
114261
114440
114530
114606
114650
114681
114693
114677
114624
114540
114441
114325
114187
114033
113879
113735
113591
113439
113274
113096
112905
112699
112513
112354
112195
112025
111847
111653
111437
111205
110989
110803
110629
110462
110286
110100
109902
109686
109444
109189
108979
108806
108655
108518
108367
108201
108021
107822
107588
107400
32007.2
33379.5
56623.1
98389.6
108207
109547
109855
109532
109490
109590
109601
109567
109572
109688
110091
111072
112613
113822
114305
114447
114541
114629
114687
114719
114720
114685
114610
114509
114392
114269
114138
113989
113830
113676
113530
113382
113226
113061
112880
112680
112482
112308
112139
111962
111777
111580
111366
111132
110904
110712
110537
110373
110214
110042
109853
109650
109431
109187
108936
108735
108569
108426
108298
108159
107995
107807
107585
107401
32000
32005.2
33430.3
55498.7
95168.6
109747
109992
109227
109473
109712
109656
109600
109605
109766
110276
111418
112980
114013
114373
114499
114597
114687
114745
114765
114751
114692
114594
114478
114353
114225
114091
113944
113781
113611
113447
113294
113147
112998
112834
112647
112441
112236
112042
111854
111666
111473
111272
111058
110836
110634
110455
110283
110117
109958
109792
109610
109411
109194
108961
108720
108520
108349
108197
108061
107927
107765
107571
107398
32000
32000
32005.8
33109.5
54327.4
95412
108956
108666
109673
109746
109622
109687
109732
109883
110458
111754
113333
114226
114482
114591
114683
114776
114819
114816
114780
114698
114584
114458
114328
114195
114055
113905
113743
113566
113385
113220
113069
112923
112766
112589
112389
112171
111954
111754
111566
111382
111197
111002
110789
110577
110389
110208
110028
109856
109696
109541
109373
109188
108978
108753
108532
108322
108137
107967
107815
107653
107472
107311
32000
32000
32000
32003.7
33083.9
51629.2
95151.1
107193
109777
109387
109567
109883
109890
109983
110617
112061
113664
114414
114615
114724
114817
114889
114899
114870
114811
114715
114592
114457
114322
114184
114039
113887
113727
113554
113367
113187
113024
112866
112700
112522
112326
112111
111888
111684
111502
111328
111152
110966
110762
110543
110337
110145
109954
109766
109591
109431
109277
109115
108943
108750
108542
108326
108125
107930
107755
107578
107394
107215
32000
32000
32000
32000
32003.6
32741
51069.9
90546.4
109707
109322
109817
109914
109862
110034
110811
112417
113893
114475
114681
114831
114937
114977
114962
114914
114831
114723
114598
114464
114330
114196
114052
113899
113743
113577
113392
113195
113012
112835
112653
112466
112269
112062
111846
111640
111463
111293
111117
110932
110733
110516
110296
110088
109892
109701
109517
109344
109179
109012
108845
108668
108488
108292
108099
107898
107714
107525
107333
107147
32000
32000
32000
32000
32000
32002
32655.9
47962
89928.3
106054
110170
109971
109770
110054
111192
113051
114113
114430
114621
114798
114946
114995
114986
114936
114842
114734
114611
114474
114342
114211
114067
113917
113766
113605
113423
113219
113012
112809
112612
112418
112222
112020
111809
111601
111413
111237
111058
110872
110675
110464
110245
110034
109838
109655
109473
109292
109114
108936
108762
108585
108412
108226
108043
107842
107653
107455
107263
107083
32000
32000
32000
32000
32000
32000
32001.6
32456.7
45808.4
85155.8
109865
110118
109772
110339
111899
113764
114257
114352
114553
114719
114859
114943
114965
114934
114844
114739
114621
114483
114334
114174
114010
113856
113709
113558
113386
113183
112964
112747
112546
112357
112167
111963
111745
111527
111332
111156
110982
110802
110609
110402
110187
109978
109787
109615
109438
109251
109058
108866
108682
108503
108334
108156
107985
107790
107600
107393
107195
107023
32000
32000
32000
32000
32000
32000
32000
32000.9
32306.4
43831.7
84266
103979
108975
110470
112855
114044
114188
114309
114588
114785
114903
114972
114983
114943
114844
114720
114588
114440
114261
114069
113885
113719
113570
113422
113259
113077
112878
112672
112477
112294
112106
111903
111682
111455
111251
111076
110906
110730
110540
110335
110122
109913
109724
109560
109394
109209
109008
108808
108612
108429
108254
108078
107910
107727
107540
107340
107137
106973
32000
32000
32000
32000
32000
32000
32000
32000
32000.5
32232.4
41366.3
77713.4
107218
111667
113806
113956
114231
114521
114725
114938
115080
115127
115100
115010
114871
114713
114556
114388
114206
114017
113832
113659
113501
113350
113195
113025
112833
112627
112428
112240
112048
111844
111620
111384
111171
110990
110820
110645
110459
110262
110057
109854
109660
109493
109336
109158
108957
108753
108547
108363
108184
108012
107838
107665
107473
107290
107077
106920
32000
32000
32000
32000
32000
32000
32000
32000
32000
32000.3
32127.9
39411.2
75572.1
103177
112439
113740
114761
114833
114832
115007
115239
115327
115303
115150
114938
114746
114577
114406
114224
114034
113842
113660
113490
113325
113159
112985
112793
112589
112389
112193
111994
111784
111558
111321
111107
110925
110755
110581
110399
110210
110014
109816
109616
109438
109283
109104
108901
108691
108490
108309
108124
107952
107769
107606
107416
107246
107032
106862
32000
32000
32000
32000
32000
32000
32000
32000
32000
32000
32000.1
32089.8
37538.6
70437.4
107836
114929
116053
114958
114726
114761
115076
115317
115355
115201
114962
114790
114644
114486
114294
114064
113835
113636
113463
113301
113143
112975
112781
112567
112354
112143
111932
111718
111494
111268
111070
110893
110719
110539
110355
110165
109975
109783
109580
109388
109223
109031
108827
108613
108428
108251
108069
107893
107705
107537
107350
107176
106966
106804
32000
32000
32000
32000
32000
32000
32000
32000
32000
32000
32000
32000.1
32049.2
36372.1
70423.8
104854
114396
114666
114628
114683
115018
115317
115315
115090
114805
114676
114595
114487
114312
114053
113778
113573
113423
113286
113140
112964
112746
112501
112267
112050
111842
111632
111417
111219
111043
110869
110691
110509
110323
110134
109948
109762
109566
109364
109175
108964
108753
108551
108382
108212
108026
107838
107642
107466
107288
107124
106938
106760
32000
32000
32000
32000
32000
32000
32000
32000
32000
32000
32000
32000
32000
32032.9
35741.6
68495.4
109385
116332
115937
115102
115237
115408
115281
114985
114669
114510
114450
114396
114255
114003
113697
113502
113355
113228
113090
112910
112690
112440
112202
111988
111780
111567
111373
111200
111028
110842
110648
110453
110264
110084
109913
109746
109562
109346
109124
108907
108691
108505
108336
108171
107989
107794
107589
107402
107232
107075
106892
106696
32000
32000
32000
32000
32000
32000
32000
32000
32000
32000
32000
32000
32000
32000
32025.2
35617.9
69789.9
106992
114770
114717
115010
115366
115199
114974
114663
114509
114435
114386
114240
113997
113677
113458
113299
113167
113047
112866
112655
112420
112183
111953
111732
111526
111342
111175
110998
110796
110586
110379
110187
110014
109851
109689
109515
109317
109098
108871
108647
108468
108304
108133
107947
107746
107527
107328
107155
107003
106831
106664
32000
32000
32000
32000
32000
32000
32000
32000
32000
32000
32000
32000
32000
32000
32000
32023.4
35513.6
68867.2
110314
116082
115841
115665
115468
115159
114783
114576
114505
114435
114279
114042
113715
113464
113278
113133
113018
112838
112636
112422
112186
111933
111685
111485
111308
111145
110950
110741
110524
110307
110105
109925
109759
109597
109435
109254
109050
108833
108612
108428
108259
108084
107899
107704
107494
107296
107113
106949
106775
106605
32000
32000
32000
32000
32000
32000
32000
32000
32000
32000
32000
32000
32000
32000
32000
32000
32022.8
35533
70275.5
106804
114374
115728
115649
115222
114831
114613
114588
114532
114388
114131
113746
113458
113281
113147
113027
112842
112634
112408
112173
111932
111707
111518
111336
111158
110948
110724
110485
110244
110029
109840
109667
109499
109331
109159
108973
108775
108572
108389
108210
108027
107835
107634
107428
107242
107063
106902
106725
106547
32000
32000
32000
32000
32000
32000
32000
32000
32000
32000
32000
32000
32000
32000
32000
32000
32000
32023.1
35432.2
67464.8
108932
116817
116142
114797
114512
114282
114439
114543
114419
114150
113721
113415
113249
113121
112993
112798
112587
112351
112089
111856
111678
111504
111325
111136
110919
110694
110456
110210
109984
109780
109592
109416
109239
109058
108883
108710
108531
108351
108166
107972
107764
107550
107352
107170
106997
106843
106663
106478
32000
32000
32000
32000
32000
32000
32000
32000
32000
32000
32000
32000
32000
32000
32000
32000
32000
32000
32020.1
35119
67402.7
110025
113688
114196
114035
113985
114250
114327
114253
114006
113591
113295
113139
113039
112926
112733
112510
112236
111952
111753
111589
111433
111269
111072
110853
110621
110383
110162
109958
109758
109559
109364
109168
108966
108786
108636
108488
108317
108133
107933
107707
107470
107270
107087
106918
106774
106597
106409
32000
32000
32000
32000
32000
32000
32000
32000
32000
32000
32000
32000
32000
32000
32000
32000
32000
32000
32000
32018.1
35022.7
67183.6
106252
115889
115051
114442
114517
114403
114179
113864
113473
113225
113085
112995
112918
112730
112485
112155
111847
111647
111475
111335
111178
110967
110735
110487
110273
110082
109905
109723
109530
109324
109101
108884
108696
108538
108413
108275
108097
107904
107678
107419
107199
107012
106840
106701
106539
106354
32000
32000
32000
32000
32000
32000
32000
32000
32000
32000
32000
32000
32000
32000
32000
32000
32000
32000
32000
32000
32018.4
34744
63869.7
106088
114333
114637
114767
114593
114351
113849
113477
113202
113052
112988
112946
112750
112494
112124
111787
111591
111422
111287
111121
110902
110636
110360
110152
109977
109830
109674
109485
109280
109040
108801
108604
108434
108306
108200
108040
107854
107641
107382
107142
106952
106777
106637
106491
106311
32000
32000
32000
32000
32000
32000
32000
32000
32000
32000
32000
32000
32000
32000
32000
32000
32000
32000
32000
32000
32000
32014.4
34242.3
60843.8
104826
114544
115017
114471
114083
113774
113348
113033
112915
112885
112863
112671
112416
112057
111752
111567
111416
111297
111122
110892
110585
110271
110058
109883
109751
109619
109436
109231
108987
108726
108516
108332
108189
108090
107950
107769
107567
107323
107081
106890
106716
106572
106442
106269
32000
32000
32000
32000
32000
32000
32000
32000
32000
32000
32000
32000
32000
32000
32000
32000
32000
32000
32000
32000
32000
32000
32010.6
33737.8
60228.5
101315
113321
114449
113964
113443
113063
112779
112672
112736
112733
112539
112288
111949
111687
111500
111371
111260
111085
110851
110525
110214
110009
109836
109704
109573
109392
109187
108942
108672
108452
108261
108096
107973
107846
107673
107479
107250
107014
106821
106647
106499
106378
106215
32000
32000
32000
32000
32000
32000
32000
32000
32000
32000
32000
32000
32000
32000
32000
32000
32000
32000
32000
32000
32000
32000
32000
32007.8
33581.6
55579.5
97914.5
114585
114504
113644
112995
112911
112893
112874
112715
112497
112190
111884
111652
111468
111349
111201
111004
110737
110397
110129
109951
109807
109692
109541
109350
109138
108891
108635
108420
108230
108054
107901
107765
107599
107406
107188
106958
106754
106576
106417
106290
106140
32000
32000
32000
32000
32000
32000
32000
32000
32000
32000
32000
32000
32000
32000
32000
32000
32000
32000
32000
32000
32000
32000
32000
32000
32006.4
32975.5
50740.1
96633.3
112688
113744
113498
113348
113207
113132
112880
112534
112137
111842
111627
111510
111372
111165
110921
110597
110261
110041
109878
109766
109668
109501
109301
109067
108817
108593
108397
108211
108032
107862
107705
107546
107361
107156
106937
106715
106519
106345
106201
106046
32000
32000
32000
32000
32000
32000
32000
32000
32000
32000
32000
32000
32000
32000
32000
32000
32000
32000
32000
32000
32000
32000
32000
32000
32000
32002.6
32604
48530.7
92708.2
110524
113190
113664
113403
113183
112833
112288
111880
111643
111528
111485
111369
111143
110857
110500
110177
109976
109820
109722
109623
109445
109227
108978
108746
108554
108372
108187
107996
107809
107634
107473
107311
107124
106927
106720
106503
106302
106141
105959
32000
32000
32000
32000
32000
32000
32000
32000
32000
32000
32000
32000
32000
32000
32000
32000
32000
32000
32000
32000
32000
32000
32000
32000
32000
32000
32001.5
32436
45503.5
84486.4
111436
112950
113132
112997
112492
111945
111617
111442
111385
111376
111301
111071
110777
110458
110164
109957
109788
109659
109544
109364
109144
108918
108722
108539
108357
108166
107957
107740
107541
107363
107206
107051
106878
106699
106503
106287
106101
105901
32000
32000
32000
32000
32000
32000
32000
32000
32000
32000
32000
32000
32000
32000
32000
32000
32000
32000
32000
32000
32000
32000
32000
32000
32000
32000
32000
32000.9
32249.1
40916
78659.2
108658
113456
113343
112623
112096
111710
111510
111388
111302
111203
110955
110708
110474
110232
110004
109797
109615
109446
109260
109064
108874
108699
108529
108346
108150
107928
107685
107460
107265
107093
106945
106793
106627
106454
106259
106064
105858
32000
32000
32000
32000
32000
32000
32000
32000
32000
32000
32000
32000
32000
32000
32000
32000
32000
32000
32000
32000
32000
32000
32000
32000
32000
32000
32000
32000
32000.3
32116.3
38031.3
73410.5
103877
112790
112674
112324
111896
111670
111510
111338
111095
110861
110657
110474
110291
110079
109834
109592
109361
109143
108942
108759
108595
108440
108274
108092
107889
107663
107431
107215
107020
106848
106693
106535
106370
106194
106008
105806
32000
32000
32000
32000
32000
32000
32000
32000
32000
32000
32000
32000
32000
32000
32000
32000
32000
32000
32000
32000
32000
32000
32000
32000
32000
32000
32000
32000
32000
32000.1
32056.9
36379.4
62515.3
103214
110962
111863
111720
111646
111447
111240
110980
110723
110542
110396
110274
110100
109874
109611
109325
109051
108819
108619
108452
108298
108140
107977
107809
107626
107418
107204
106992
106792
106611
106435
106266
106102
105929
105735
32000
32000
32000
32000
32000
32000
32000
32000
32000
32000
32000
32000
32000
32000
32000
32000
32000
32000
32000
32000
32000
32000
32000
32000
32000
32000
32000
32000
32000
32000
32000.1
32031.7
34019.2
56543.7
94725.8
111883
112765
112143
111516
111245
110878
110544
110354
110231
110134
110017
109837
109598
109335
109060
108798
108572
108375
108192
108019
107852
107693
107541
107368
107173
106971
106757
106550
106362
106183
106018
105856
105668
32000
32000
32000
32000
32000
32000
32000
32000
32000
32000
32000
32000
32000
32000
32000
32000
32000
32000
32000
32000
32000
32000
32000
32000
32000
32000
32000
32000
32000
32000
32000
32000
32009.3
33049.7
49000.5
88735.9
108113
110792
111014
111110
110856
110558
110283
110144
110015
109911
109759
109521
109263
109025
108807
108599
108394
108184
107973
107772
107588
107425
107273
107093
106902
106697
106488
106300
106121
105954
105800
105616
32000
32000
32000
32000
32000
32000
32000
32000
32000
32000
32000
32000
32000
32000
32000
32000
32000
32000
32000
32000
32000
32000
32000
32000
32000
32000
32000
32000
32000
32000
32000
32000
32000
32003.2
32466.5
42331.5
78853.8
104660
112083
111784
111215
110738
110323
110152
109981
109816
109589
109324
109073
108878
108726
108582
108411
108213
107994
107763
107545
107349
107176
107000
106812
106612
106414
106231
106057
105897
105748
105567
32000
32000
32000
32000
32000
32000
32000
32000
32000
32000
32000
32000
32000
32000
32000
32000
32000
32000
32000
32000
32000
32000
32000
32000
32000
32000
32000
32000
32000
32000
32000
32000
32000
32000
32000.9
32148.8
38296.5
66465.6
103156
109905
110617
110637
110473
110082
109926
109709
109434
109139
108900
108741
108603
108487
108342
108152
107945
107720
107498
107298
107111
106928
106741
106545
106352
106172
105998
105839
105693
105513
32000
32000
32000
32000
32000
32000
32000
32000
32000
32000
32000
32000
32000
32000
32000
32000
32000
32000
32000
32000
32000
32000
32000
32000
32000
32000
32000
32000
32000
32000
32000
32000
32000
32000
32000
32000.2
32059.7
34837
57614.6
93161.1
109839
111469
110987
110045
109899
109719
109494
109170
108878
108678
108501
108359
108227
108044
107834
107611
107408
107223
107048
106872
106691
106501
106304
106120
105939
105770
105620
105446
32000
32000
32000
32000
32000
32000
32000
32000
32000
32000
32000
32000
32000
32000
32000
32000
32000
32000
32000
32000
32000
32000
32000
32000
32000
32000
32000
32000
32000
32000
32000
32000
32000
32000
32000
32000
32000
32015.7
33167.8
47955.3
84406.1
106190
109027
109241
109596
109737
109513
109195
108941
108726
108531
108336
108163
107972
107736
107499
107298
107115
106959
106808
106641
106462
106264
106067
105879
105701
105543
105378
32000
32000
32000
32000
32000
32000
32000
32000
32000
32000
32000
32000
32000
32000
32000
32000
32000
32000
32000
32000
32000
32000
32000
32000
32000
32000
32000
32000
32000
32000
32000
32000
32000
32000
32000
32000
32000
32000
32003.7
32404.2
40236.1
71805.8
99884.4
110140
110428
110077
109307
108950
108717
108582
108433
108278
108123
107946
107716
107459
107232
107037
106874
106731
106572
106393
106190
105990
105803
105626
105469
105315
32000
32000
32000
32000
32000
32000
32000
32000
32000
32000
32000
32000
32000
32000
32000
32000
32000
32000
32000
32000
32000
32000
32000
32000
32000
32000
32000
32000
32000
32000
32000
32000
32000
32000
32000
32000
32000
32000
32000
32000.7
32095.9
36025
57335.1
95680.4
107383
108817
108662
108508
108429
108438
108317
108171
108015
107869
107684
107455
107214
107003
106823
106665
106502
106321
106114
105916
105733
105561
105406
105258
32000
32000
32000
32000
32000
32000
32000
32000
32000
32000
32000
32000
32000
32000
32000
32000
32000
32000
32000
32000
32000
32000
32000
32000
32000
32000
32000
32000
32000
32000
32000
32000
32000
32000
32000
32000
32000
32000
32000
32000
32000.1
32028.8
33264.4
48060.4
81984.5
104440
110078
109664
109107
108608
108318
108080
107874
107712
107574
107394
107178
106958
106769
106603
106437
106252
106044
105846
105667
105498
105345
105193
32000
32000
32000
32000
32000
32000
32000
32000
32000
32000
32000
32000
32000
32000
32000
32000
32000
32000
32000
32000
32000
32000
32000
32000
32000
32000
32000
32000
32000
32000
32000
32000
32000
32000
32000
32000
32000
32000
32000
32000
32000
32000
32004.3
32378.4
40117.4
66476.6
99905.5
106939
108261
108302
108225
108041
107834
107639
107487
107346
107145
106917
106690
106506
106335
106159
105971
105783
105608
105441
105284
105117
32000
32000
32000
32000
32000
32000
32000
32000
32000
32000
32000
32000
32000
32000
32000
32000
32000
32000
32000
32000
32000
32000
32000
32000
32000
32000
32000
32000
32000
32000
32000
32000
32000
32000
32000
32000
32000
32000
32000
32000
32000
32000
32000
32000.6
32096.6
34732.4
54053
86689
105737
109168
108786
108246
107863
107598
107387
107238
107084
106884
106637
106423
106249
106083
105911
105733
105552
105375
105205
105019
32000
32000
32000
32000
32000
32000
32000
32000
32000
32000
32000
32000
32000
32000
32000
32000
32000
32000
32000
32000
32000
32000
32000
32000
32000
32000
32000
32000
32000
32000
32000
32000
32000
32000
32000
32000
32000
32000
32000
32000
32000
32000
32000
32000
32000.1
32014.9
32796.4
42871.2
71800.4
100534
106400
107460
107775
107541
107303
107163
107033
106858
106636
106381
106177
105995
105824
105657
105476
105287
105109
104918
32000
32000
32000
32000
32000
32000
32000
32000
32000
32000
32000
32000
32000
32000
32000
32000
32000
32000
32000
32000
32000
32000
32000
32000
32000
32000
32000
32000
32000
32000
32000
32000
32000
32000
32000
32000
32000
32000
32000
32000
32000
32000
32000
32000
32000
32000
32002
32172.3
35940.9
57465.2
87848.8
105769
108172
107611
107229
107095
106891
106700
106543
106329
106103
105909
105731
105568
105392
105207
105023
104830
32000
32000
32000
32000
32000
32000
32000
32000
32000
32000
32000
32000
32000
32000
32000
32000
32000
32000
32000
32000
32000
32000
32000
32000
32000
32000
32000
32000
32000
32000
32000
32000
32000
32000
32000
32000
32000
32000
32000
32000
32000
32000
32000
32000
32000
32000
32000
32000.2
32027.9
33180.3
44015.3
74172.6
98872.3
105837
107697
107421
106854
106544
106431
106277
106071
105858
105642
105459
105313
105155
104990
104794
32000
32000
32000
32000
32000
32000
32000
32000
32000
32000
32000
32000
32000
32000
32000
32000
32000
32000
32000
32000
32000
32000
32000
32000
32000
32000
32000
32000
32000
32000
32000
32000
32000
32000
32000
32000
32000
32000
32000
32000
32000
32000
32000
32000
32000
32000
32000
32000
32000
32003.7
32219.1
36569.1
57589
86635.2
105318
106902
106244
106238
106360
106301
106130
105872
105574
105376
105246
105155
105016
104828
32000
32000
32000
32000
32000
32000
32000
32000
32000
32000
32000
32000
32000
32000
32000
32000
32000
32000
32000
32000
32000
32000
32000
32000
32000
32000
32000
32000
32000
32000
32000
32000
32000
32000
32000
32000
32000
32000
32000
32000
32000
32000
32000
32000
32000
32000
32000
32000
32000
32000
32000.3
32035.1
33248.8
43223.2
72487.3
95939.3
105433
107153
106983
106541
106216
105790
105410
105218
105114
105086
105015
104826
32000
32000
32000
32000
32000
32000
32000
32000
32000
32000
32000
32000
32000
32000
32000
32000
32000
32000
32000
32000
32000
32000
32000
32000
32000
32000
32000
32000
32000
32000
32000
32000
32000
32000
32000
32000
32000
32000
32000
32000
32000
32000
32000
32000
32000
32000
32000
32000
32000
32000
32000
32000
32003.9
32191.7
36062.2
54080.9
84300.5
102016
104908
105436
105697
105532
105282
105100
104999
104998
104988
104785
32000
32000
32000
32000
32000
32000
32000
32000
32000
32000
32000
32000
32000
32000
32000
32000
32000
32000
32000
32000
32000
32000
32000
32000
32000
32000
32000
32000
32000
32000
32000
32000
32000
32000
32000
32000
32000
32000
32000
32000
32000
32000
32000
32000
32000
32000
32000
32000
32000
32000
32000
32000
32000
32000.2
32028.2
32891.7
41019.1
66914.4
91410.9
104342
106624
106425
105749
105367
105093
104954
104879
104685
32000
32000
32000
32000
32000
32000
32000
32000
32000
32000
32000
32000
32000
32000
32000
32000
32000
32000
32000
32000
32000
32000
32000
32000
32000
32000
32000
32000
32000
32000
32000
32000
32000
32000
32000
32000
32000
32000
32000
32000
32000
32000
32000
32000
32000
32000
32000
32000
32000
32000
32000
32000
32000
32000
32000
32002.2
32121
34793.9
48709.7
77642.9
97693.8
103985
105341
105187
104871
104685
104715
104584
32000
32000
32000
32000
32000
32000
32000
32000
32000
32000
32000
32000
32000
32000
32000
32000
32000
32000
32000
32000
32000
32000
32000
32000
32000
32000
32000