/*--------------------------------*- C++ -*----------------------------------*\
| =========                 |                                                 |
| \\      /  F ield         | OpenFOAM: The Open Source CFD Toolbox           |
|  \\    /   O peration     | Version:  2306                                  |
|   \\  /    A nd           | Website:  www.openfoam.com                      |
|    \\/     M anipulation  |                                                 |
\*---------------------------------------------------------------------------*/
FoamFile
{
    version     2.0;
    format      ascii;
    arch        "LSB;label=32;scalar=64";
    class       volVectorField;
    location    "5e-05";
    object      U;
}
// * * * * * * * * * * * * * * * * * * * * * * * * * * * * * * * * * * * * * //

dimensions      [0 1 -1 0 0 0 0];

internalField   nonuniform List<vector> 
9032
(
(365.632 155.22 0)
(365.744 155.262 0)
(365.779 155.299 0)
(365.729 155.303 0)
(365.606 155.252 0)
(365.5 155.2 0)
(365.423 155.158 0)
(365.382 155.13 0)
(365.367 155.118 0)
(365.357 155.112 0)
(365.337 155.108 0)
(365.304 155.095 0)
(365.271 155.077 0)
(365.229 155.062 0)
(365.176 155.038 0)
(365.096 155.015 0)
(364.922 154.975 0)
(364.51 154.904 0)
(363.551 154.695 0)
(362.098 154.305 0)
(359.879 153.644 0)
(357.468 152.698 0)
(355.728 151.734 0)
(354.833 151.042 0)
(354.442 150.653 0)
(354.33 150.476 0)
(354.315 150.454 0)
(354.35 150.43 0)
(354.408 150.444 0)
(354.473 150.471 0)
(354.544 150.498 0)
(354.639 150.527 0)
(354.764 150.568 0)
(354.919 150.626 0)
(355.103 150.701 0)
(355.31 150.791 0)
(355.533 150.887 0)
(355.772 150.988 0)
(356.031 151.092 0)
(356.317 151.203 0)
(356.632 151.321 0)
(356.972 151.447 0)
(357.329 151.583 0)
(357.692 151.726 0)
(358.055 151.873 0)
(358.412 152.019 0)
(358.762 152.164 0)
(359.102 152.31 0)
(359.43 152.457 0)
(359.754 152.602 0)
(360.083 152.744 0)
(360.423 152.887 0)
(360.773 153.035 0)
(361.129 153.187 0)
(361.488 153.342 0)
(361.853 153.499 0)
(362.223 153.658 0)
(362.595 153.818 0)
(362.966 153.978 0)
(363.331 154.136 0)
(363.684 154.29 0)
(364.031 154.442 0)
(364.399 154.595 0)
(364.786 154.744 0)
(365.194 154.882 0)
(365.604 155.011 0)
(366.024 155.169 0)
(366.334 155.294 0)
(365.422 155.198 0)
(365.392 155.317 0)
(365.338 155.285 0)
(365.301 155.171 0)
(365.263 155.068 0)
(365.215 155.014 0)
(365.173 155.012 0)
(365.144 155.033 0)
(365.122 155.058 0)
(365.104 155.058 0)
(365.081 155.046 0)
(365.067 155.014 0)
(365.05 154.996 0)
(365.026 154.972 0)
(364.986 154.955 0)
(364.907 154.922 0)
(364.748 154.835 0)
(364.303 154.655 0)
(363.338 154.417 0)
(361.791 153.815 0)
(359.52 152.774 0)
(357.249 151.876 0)
(355.814 151.137 0)
(355.047 150.708 0)
(354.656 150.491 0)
(354.505 150.47 0)
(354.427 150.491 0)
(354.417 150.543 0)
(354.434 150.568 0)
(354.472 150.58 0)
(354.535 150.596 0)
(354.627 150.632 0)
(354.75 150.696 0)
(354.903 150.78 0)
(355.083 150.874 0)
(355.287 150.969 0)
(355.515 151.061 0)
(355.762 151.155 0)
(356.029 151.259 0)
(356.318 151.375 0)
(356.632 151.499 0)
(356.97 151.628 0)
(357.325 151.762 0)
(357.688 151.901 0)
(358.052 152.039 0)
(358.413 152.175 0)
(358.768 152.31 0)
(359.113 152.448 0)
(359.446 152.592 0)
(359.77 152.741 0)
(360.097 152.891 0)
(360.436 153.038 0)
(360.788 153.185 0)
(361.15 153.333 0)
(361.518 153.48 0)
(361.888 153.633 0)
(362.261 153.792 0)
(362.632 153.955 0)
(363 154.114 0)
(363.365 154.267 0)
(363.727 154.416 0)
(364.087 154.573 0)
(364.453 154.737 0)
(364.835 154.897 0)
(365.232 155.048 0)
(365.629 155.182 0)
(366.04 155.316 0)
(366.363 155.421 0)
(364.356 155.164 0)
(364.404 154.981 0)
(364.474 154.791 0)
(364.529 154.68 0)
(364.525 154.697 0)
(364.509 154.74 0)
(364.49 154.786 0)
(364.49 154.822 0)
(364.496 154.816 0)
(364.504 154.8 0)
(364.52 154.768 0)
(364.521 154.773 0)
(364.53 154.774 0)
(364.522 154.784 0)
(364.506 154.78 0)
(364.428 154.768 0)
(364.22 154.732 0)
(363.656 154.598 0)
(362.609 154.249 0)
(360.758 153.468 0)
(358.305 152.349 0)
(356.291 151.51 0)
(355.274 151.047 0)
(354.731 150.839 0)
(354.476 150.749 0)
(354.363 150.731 0)
(354.33 150.691 0)
(354.327 150.649 0)
(354.358 150.603 0)
(354.42 150.572 0)
(354.507 150.566 0)
(354.616 150.599 0)
(354.752 150.666 0)
(354.914 150.749 0)
(355.098 150.839 0)
(355.306 150.935 0)
(355.54 151.03 0)
(355.798 151.13 0)
(356.076 151.238 0)
(356.374 151.357 0)
(356.693 151.483 0)
(357.035 151.61 0)
(357.395 151.74 0)
(357.763 151.873 0)
(358.133 152.007 0)
(358.503 152.14 0)
(358.866 152.277 0)
(359.218 152.42 0)
(359.555 152.57 0)
(359.882 152.722 0)
(360.207 152.873 0)
(360.543 153.022 0)
(360.898 153.174 0)
(361.267 153.331 0)
(361.646 153.493 0)
(362.028 153.653 0)
(362.407 153.815 0)
(362.778 153.978 0)
(363.144 154.138 0)
(363.512 154.29 0)
(363.883 154.44 0)
(364.256 154.594 0)
(364.634 154.751 0)
(365.017 154.905 0)
(365.402 155.045 0)
(365.784 155.169 0)
(366.188 155.306 0)
(366.515 155.417 0)
(363.41 154.467 0)
(363.49 154.4 0)
(363.615 154.392 0)
(363.701 154.437 0)
(363.744 154.491 0)
(363.769 154.529 0)
(363.784 154.553 0)
(363.808 154.558 0)
(363.834 154.555 0)
(363.869 154.543 0)
(363.899 154.561 0)
(363.955 154.528 0)
(363.983 154.545 0)
(364.005 154.534 0)
(363.996 154.535 0)
(363.938 154.479 0)
(363.716 154.345 0)
(363.027 154.186 0)
(361.726 153.756 0)
(359.539 152.87 0)
(357.086 151.744 0)
(355.36 151.082 0)
(354.611 150.685 0)
(354.263 150.604 0)
(354.098 150.596 0)
(354.038 150.581 0)
(354.038 150.557 0)
(354.062 150.529 0)
(354.117 150.517 0)
(354.203 150.54 0)
(354.307 150.599 0)
(354.443 150.672 0)
(354.603 150.755 0)
(354.777 150.844 0)
(354.969 150.933 0)
(355.186 151.017 0)
(355.434 151.099 0)
(355.708 151.189 0)
(356.003 151.293 0)
(356.316 151.41 0)
(356.645 151.538 0)
(356.991 151.668 0)
(357.352 151.799 0)
(357.722 151.928 0)
(358.097 152.052 0)
(358.472 152.174 0)
(358.841 152.302 0)
(359.201 152.44 0)
(359.549 152.59 0)
(359.885 152.747 0)
(360.213 152.907 0)
(360.549 153.064 0)
(360.91 153.212 0)
(361.29 153.359 0)
(361.681 153.51 0)
(362.075 153.665 0)
(362.461 153.822 0)
(362.833 153.982 0)
(363.197 154.141 0)
(363.567 154.288 0)
(363.95 154.428 0)
(364.335 154.572 0)
(364.717 154.724 0)
(365.092 154.882 0)
(365.468 155.043 0)
(365.841 155.2 0)
(366.244 155.363 0)
(366.571 155.479 0)
(362.999 154.199 0)
(363.116 154.181 0)
(363.275 154.195 0)
(363.4 154.228 0)
(363.464 154.276 0)
(363.495 154.316 0)
(363.512 154.349 0)
(363.531 154.369 0)
(363.558 154.377 0)
(363.603 154.383 0)
(363.651 154.386 0)
(363.684 154.405 0)
(363.725 154.408 0)
(363.727 154.414 0)
(363.696 154.413 0)
(363.601 154.394 0)
(363.259 154.362 0)
(362.507 154.125 0)
(360.947 153.452 0)
(358.456 152.427 0)
(356.094 151.446 0)
(354.751 150.887 0)
(354.116 150.646 0)
(353.871 150.583 0)
(353.734 150.545 0)
(353.694 150.521 0)
(353.7 150.506 0)
(353.74 150.488 0)
(353.824 150.476 0)
(353.952 150.467 0)
(354.097 150.498 0)
(354.263 150.571 0)
(354.441 150.658 0)
(354.628 150.75 0)
(354.83 150.84 0)
(355.059 150.929 0)
(355.319 151.023 0)
(355.607 151.126 0)
(355.918 151.239 0)
(356.244 151.365 0)
(356.578 151.501 0)
(356.919 151.64 0)
(357.276 151.776 0)
(357.65 151.901 0)
(358.031 152.018 0)
(358.414 152.131 0)
(358.792 152.25 0)
(359.164 152.384 0)
(359.527 152.531 0)
(359.877 152.689 0)
(360.213 152.851 0)
(360.546 153.012 0)
(360.911 153.158 0)
(361.307 153.299 0)
(361.71 153.442 0)
(362.111 153.593 0)
(362.502 153.751 0)
(362.874 153.914 0)
(363.232 154.066 0)
(363.596 154.208 0)
(363.981 154.346 0)
(364.372 154.485 0)
(364.763 154.631 0)
(365.145 154.789 0)
(365.519 154.967 0)
(365.882 155.159 0)
(366.273 155.361 0)
(366.557 155.519 0)
(363.088 153.974 0)
(363.197 154.045 0)
(363.311 154.12 0)
(363.388 154.198 0)
(363.407 154.227 0)
(363.42 154.239 0)
(363.428 154.247 0)
(363.441 154.241 0)
(363.47 154.243 0)
(363.513 154.263 0)
(363.565 154.28 0)
(363.588 154.324 0)
(363.603 154.343 0)
(363.597 154.34 0)
(363.558 154.336 0)
(363.435 154.307 0)
(363.048 154.207 0)
(362.037 153.864 0)
(360.103 153.086 0)
(357.409 152.064 0)
(355.289 151.194 0)
(354.345 150.709 0)
(353.85 150.567 0)
(353.64 150.538 0)
(353.517 150.507 0)
(353.485 150.486 0)
(353.494 150.468 0)
(353.539 150.452 0)
(353.632 150.45 0)
(353.763 150.477 0)
(353.931 150.53 0)
(354.117 150.6 0)
(354.311 150.679 0)
(354.51 150.759 0)
(354.722 150.838 0)
(354.962 150.916 0)
(355.234 151.003 0)
(355.535 151.104 0)
(355.857 151.221 0)
(356.193 151.351 0)
(356.534 151.49 0)
(356.873 151.627 0)
(357.213 151.754 0)
(357.575 151.872 0)
(357.957 151.989 0)
(358.346 152.103 0)
(358.743 152.216 0)
(359.136 152.34 0)
(359.515 152.485 0)
(359.879 152.642 0)
(360.219 152.805 0)
(360.543 152.966 0)
(360.884 153.124 0)
(361.276 153.27 0)
(361.685 153.401 0)
(362.095 153.533 0)
(362.493 153.678 0)
(362.878 153.831 0)
(363.231 153.989 0)
(363.585 154.146 0)
(363.964 154.286 0)
(364.36 154.417 0)
(364.761 154.556 0)
(365.157 154.716 0)
(365.546 154.9 0)
(365.917 155.102 0)
(366.307 155.31 0)
(366.544 155.464 0)
(363.294 154.219 0)
(363.269 154.307 0)
(363.32 154.326 0)
(363.378 154.307 0)
(363.392 154.254 0)
(363.405 154.252 0)
(363.388 154.263 0)
(363.376 154.262 0)
(363.38 154.278 0)
(363.403 154.286 0)
(363.434 154.302 0)
(363.46 154.295 0)
(363.482 154.286 0)
(363.492 154.272 0)
(363.448 154.273 0)
(363.283 154.241 0)
(362.76 154.09 0)
(361.459 153.606 0)
(359.143 152.737 0)
(356.465 151.636 0)
(354.711 150.942 0)
(353.944 150.663 0)
(353.563 150.57 0)
(353.365 150.532 0)
(353.267 150.493 0)
(353.247 150.48 0)
(353.262 150.471 0)
(353.322 150.475 0)
(353.435 150.5 0)
(353.593 150.545 0)
(353.787 150.598 0)
(353.993 150.655 0)
(354.201 150.715 0)
(354.409 150.784 0)
(354.629 150.863 0)
(354.874 150.952 0)
(355.15 151.051 0)
(355.457 151.157 0)
(355.788 151.274 0)
(356.133 151.4 0)
(356.48 151.538 0)
(356.819 151.685 0)
(357.149 151.832 0)
(357.494 151.963 0)
(357.869 152.077 0)
(358.261 152.182 0)
(358.667 152.279 0)
(359.081 152.374 0)
(359.484 152.483 0)
(359.867 152.623 0)
(360.225 152.794 0)
(360.547 152.975 0)
(360.873 153.127 0)
(361.258 153.257 0)
(361.669 153.379 0)
(362.081 153.499 0)
(362.483 153.632 0)
(362.876 153.775 0)
(363.255 153.943 0)
(363.609 154.11 0)
(363.959 154.258 0)
(364.342 154.405 0)
(364.747 154.544 0)
(365.155 154.693 0)
(365.564 154.861 0)
(365.961 155.049 0)
(366.37 155.236 0)
(366.557 155.419 0)
(363.532 154.5 0)
(363.51 154.422 0)
(363.584 154.345 0)
(363.619 154.271 0)
(363.633 154.269 0)
(363.661 154.271 0)
(363.623 154.257 0)
(363.59 154.275 0)
(363.571 154.292 0)
(363.576 154.289 0)
(363.59 154.271 0)
(363.596 154.289 0)
(363.595 154.307 0)
(363.568 154.311 0)
(363.504 154.312 0)
(363.278 154.249 0)
(362.57 154.019 0)
(360.95 153.437 0)
(358.302 152.48 0)
(355.763 151.498 0)
(354.321 150.99 0)
(353.749 150.716 0)
(353.45 150.567 0)
(353.246 150.482 0)
(353.162 150.447 0)
(353.138 150.44 0)
(353.15 150.446 0)
(353.214 150.478 0)
(353.329 150.527 0)
(353.483 150.576 0)
(353.681 150.61 0)
(353.899 150.641 0)
(354.121 150.683 0)
(354.345 150.75 0)
(354.578 150.847 0)
(354.827 150.968 0)
(355.101 151.095 0)
(355.409 151.211 0)
(355.747 151.322 0)
(356.101 151.436 0)
(356.461 151.565 0)
(356.816 151.713 0)
(357.156 151.878 0)
(357.484 152.039 0)
(357.834 152.17 0)
(358.218 152.274 0)
(358.618 152.363 0)
(359.033 152.444 0)
(359.449 152.532 0)
(359.853 152.649 0)
(360.242 152.79 0)
(360.6 152.951 0)
(360.922 153.128 0)
(361.268 153.282 0)
(361.668 153.41 0)
(362.083 153.525 0)
(362.493 153.648 0)
(362.89 153.795 0)
(363.288 153.943 0)
(363.657 154.112 0)
(363.989 154.302 0)
(364.34 154.465 0)
(364.739 154.612 0)
(365.156 154.755 0)
(365.586 154.888 0)
(366 155.023 0)
(366.431 155.166 0)
(366.637 155.337 0)
(363.785 154.384 0)
(363.751 154.519 0)
(363.842 154.504 0)
(363.901 154.436 0)
(363.96 154.482 0)
(363.946 154.524 0)
(363.908 154.513 0)
(363.897 154.482 0)
(363.885 154.476 0)
(363.88 154.467 0)
(363.881 154.464 0)
(363.896 154.45 0)
(363.88 154.452 0)
(363.828 154.438 0)
(363.741 154.417 0)
(363.42 154.323 0)
(362.485 153.999 0)
(360.55 153.25 0)
(357.677 152.245 0)
(355.385 151.371 0)
(354.274 150.957 0)
(353.831 150.746 0)
(353.581 150.623 0)
(353.385 150.576 0)
(353.29 150.577 0)
(353.236 150.582 0)
(353.233 150.595 0)
(353.294 150.618 0)
(353.403 150.647 0)
(353.546 150.673 0)
(353.734 150.688 0)
(353.953 150.707 0)
(354.184 150.746 0)
(354.425 150.817 0)
(354.674 150.92 0)
(354.933 151.043 0)
(355.205 151.175 0)
(355.5 151.302 0)
(355.831 151.417 0)
(356.192 151.526 0)
(356.565 151.637 0)
(356.935 151.759 0)
(357.291 151.902 0)
(357.62 152.068 0)
(357.938 152.223 0)
(358.292 152.341 0)
(358.683 152.438 0)
(359.095 152.525 0)
(359.517 152.615 0)
(359.929 152.728 0)
(360.331 152.857 0)
(360.715 152.997 0)
(361.056 153.152 0)
(361.38 153.306 0)
(361.763 153.445 0)
(362.172 153.579 0)
(362.587 153.707 0)
(362.995 153.843 0)
(363.4 153.985 0)
(363.786 154.14 0)
(364.142 154.321 0)
(364.466 154.526 0)
(364.823 154.706 0)
(365.23 154.855 0)
(365.648 154.981 0)
(366.077 155.096 0)
(366.519 155.209 0)
(366.771 155.344 0)
(363.884 154.475 0)
(364.106 154.604 0)
(364.104 154.559 0)
(364.17 154.54 0)
(364.275 154.57 0)
(364.242 154.533 0)
(364.203 154.551 0)
(364.164 154.588 0)
(364.163 154.584 0)
(364.148 154.599 0)
(364.153 154.593 0)
(364.148 154.59 0)
(364.131 154.573 0)
(364.09 154.529 0)
(363.979 154.479 0)
(363.558 154.317 0)
(362.327 153.94 0)
(360.003 153.138 0)
(357.007 152.172 0)
(355.101 151.365 0)
(354.268 151.087 0)
(353.911 150.947 0)
(353.699 150.86 0)
(353.569 150.823 0)
(353.495 150.812 0)
(353.456 150.793 0)
(353.467 150.779 0)
(353.535 150.779 0)
(353.643 150.792 0)
(353.781 150.803 0)
(353.965 150.805 0)
(354.186 150.821 0)
(354.425 150.866 0)
(354.678 150.947 0)
(354.941 151.058 0)
(355.209 151.185 0)
(355.482 151.319 0)
(355.769 151.45 0)
(356.092 151.562 0)
(356.451 151.662 0)
(356.815 151.768 0)
(357.179 151.891 0)
(357.532 152.026 0)
(357.866 152.173 0)
(358.18 152.317 0)
(358.51 152.435 0)
(358.889 152.527 0)
(359.301 152.604 0)
(359.729 152.678 0)
(360.147 152.779 0)
(360.55 152.907 0)
(360.938 153.044 0)
(361.296 153.187 0)
(361.618 153.343 0)
(361.972 153.492 0)
(362.383 153.626 0)
(362.805 153.747 0)
(363.219 153.884 0)
(363.622 154.043 0)
(364.01 154.211 0)
(364.379 154.394 0)
(364.716 154.596 0)
(365.036 154.8 0)
(365.404 154.963 0)
(365.812 155.095 0)
(366.231 155.205 0)
(366.694 155.31 0)
(366.978 155.445 0)
(364.686 154.07 0)
(364.451 154.705 0)
(364.215 154.585 0)
(364.294 154.614 0)
(364.349 154.66 0)
(364.318 154.623 0)
(364.308 154.622 0)
(364.287 154.631 0)
(364.269 154.636 0)
(364.271 154.635 0)
(364.284 154.638 0)
(364.264 154.637 0)
(364.24 154.638 0)
(364.193 154.616 0)
(364.033 154.549 0)
(363.451 154.37 0)
(361.956 153.869 0)
(359.258 152.956 0)
(356.444 151.918 0)
(354.865 151.354 0)
(354.3 151.101 0)
(354.027 151.002 0)
(353.846 150.967 0)
(353.755 150.959 0)
(353.695 150.956 0)
(353.661 150.956 0)
(353.675 150.954 0)
(353.752 150.945 0)
(353.865 150.947 0)
(354 150.958 0)
(354.18 150.975 0)
(354.413 151.01 0)
(354.671 151.063 0)
(354.943 151.135 0)
(355.222 151.229 0)
(355.508 151.337 0)
(355.793 151.446 0)
(356.073 151.562 0)
(356.368 151.677 0)
(356.71 151.789 0)
(357.07 151.903 0)
(357.43 152.03 0)
(357.786 152.17 0)
(358.133 152.284 0)
(358.456 152.395 0)
(358.766 152.513 0)
(359.101 152.624 0)
(359.488 152.732 0)
(359.905 152.841 0)
(360.338 152.944 0)
(360.761 153.055 0)
(361.168 153.163 0)
(361.541 153.28 0)
(361.868 153.428 0)
(362.182 153.602 0)
(362.564 153.769 0)
(362.987 153.918 0)
(363.416 154.049 0)
(363.839 154.195 0)
(364.252 154.341 0)
(364.641 154.481 0)
(364.992 154.646 0)
(365.308 154.84 0)
(365.623 155.031 0)
(365.996 155.18 0)
(366.393 155.314 0)
(366.835 155.428 0)
(367.16 155.539 0)
(366.672 156.863 0)
(364.255 155.188 0)
(364.043 154.652 0)
(364.344 154.792 0)
(364.331 154.693 0)
(364.335 154.62 0)
(364.359 154.648 0)
(364.332 154.657 0)
(364.299 154.648 0)
(364.307 154.653 0)
(364.323 154.656 0)
(364.312 154.639 0)
(364.293 154.626 0)
(364.23 154.603 0)
(363.997 154.526 0)
(363.236 154.289 0)
(361.421 153.654 0)
(358.394 152.68 0)
(355.925 151.725 0)
(354.652 151.403 0)
(354.241 151.253 0)
(354.016 151.193 0)
(353.868 151.156 0)
(353.785 151.13 0)
(353.736 151.112 0)
(353.715 151.094 0)
(353.762 151.066 0)
(353.865 151.036 0)
(353.996 151.028 0)
(354.151 151.032 0)
(354.334 151.038 0)
(354.561 151.069 0)
(354.829 151.133 0)
(355.122 151.205 0)
(355.422 151.279 0)
(355.719 151.368 0)
(356.006 151.482 0)
(356.273 151.61 0)
(356.543 151.736 0)
(356.872 151.846 0)
(357.246 151.95 0)
(357.628 152.05 0)
(358.002 152.152 0)
(358.354 152.262 0)
(358.685 152.373 0)
(358.993 152.5 0)
(359.3 152.636 0)
(359.655 152.753 0)
(360.068 152.862 0)
(360.505 152.965 0)
(360.932 153.087 0)
(361.342 153.226 0)
(361.733 153.363 0)
(362.092 153.496 0)
(362.41 153.644 0)
(362.734 153.809 0)
(363.13 153.966 0)
(363.564 154.098 0)
(364.002 154.227 0)
(364.427 154.378 0)
(364.83 154.545 0)
(365.209 154.714 0)
(365.548 154.879 0)
(365.842 155.066 0)
(366.148 155.244 0)
(366.522 155.393 0)
(366.955 155.497 0)
(367.305 155.561 0)
(378.149 149.455 0)
(364.331 152.686 0)
(364.226 154.551 0)
(364.552 154.829 0)
(364.312 154.6 0)
(364.401 154.642 0)
(364.432 154.656 0)
(364.379 154.638 0)
(364.339 154.65 0)
(364.348 154.683 0)
(364.35 154.676 0)
(364.346 154.648 0)
(364.331 154.624 0)
(364.25 154.602 0)
(363.927 154.505 0)
(362.926 154.179 0)
(360.691 153.428 0)
(357.548 152.388 0)
(355.447 151.679 0)
(354.536 151.474 0)
(354.185 151.392 0)
(353.957 151.355 0)
(353.801 151.318 0)
(353.718 151.259 0)
(353.679 151.204 0)
(353.682 151.159 0)
(353.739 151.125 0)
(353.859 151.102 0)
(354.019 151.085 0)
(354.201 151.085 0)
(354.395 151.105 0)
(354.619 151.135 0)
(354.888 151.189 0)
(355.191 151.271 0)
(355.504 151.364 0)
(355.813 151.463 0)
(356.116 151.574 0)
(356.409 151.687 0)
(356.689 151.782 0)
(356.997 151.857 0)
(357.372 151.94 0)
(357.769 152.025 0)
(358.15 152.128 0)
(358.514 152.251 0)
(358.86 152.379 0)
(359.186 152.505 0)
(359.492 152.625 0)
(359.803 152.755 0)
(360.191 152.879 0)
(360.617 153.003 0)
(361.051 153.128 0)
(361.477 153.257 0)
(361.887 153.385 0)
(362.269 153.524 0)
(362.605 153.694 0)
(362.899 153.884 0)
(363.228 154.052 0)
(363.641 154.198 0)
(364.085 154.326 0)
(364.53 154.452 0)
(364.959 154.588 0)
(365.37 154.727 0)
(365.747 154.873 0)
(366.085 155.036 0)
(366.384 155.191 0)
(366.691 155.367 0)
(367.103 155.503 0)
(367.441 155.577 0)
(490.414 73.9278 0)
(394.427 140.98 0)
(366.991 156.887 0)
(364.406 155.029 0)
(364.229 154.545 0)
(364.527 154.804 0)
(364.374 154.702 0)
(364.329 154.648 0)
(364.343 154.704 0)
(364.367 154.734 0)
(364.357 154.707 0)
(364.363 154.676 0)
(364.356 154.667 0)
(364.244 154.635 0)
(363.8 154.487 0)
(362.493 154.054 0)
(359.827 153.19 0)
(356.802 152.212 0)
(355.096 151.768 0)
(354.444 151.616 0)
(354.141 151.563 0)
(353.907 151.51 0)
(353.746 151.431 0)
(353.656 151.339 0)
(353.619 151.261 0)
(353.644 151.203 0)
(353.721 151.168 0)
(353.846 151.162 0)
(354.019 151.159 0)
(354.221 151.161 0)
(354.445 151.181 0)
(354.689 151.223 0)
(354.971 151.276 0)
(355.279 151.342 0)
(355.6 151.424 0)
(355.92 151.519 0)
(356.241 151.619 0)
(356.563 151.712 0)
(356.861 151.795 0)
(357.154 151.87 0)
(357.511 151.948 0)
(357.899 152.036 0)
(358.279 152.134 0)
(358.64 152.261 0)
(358.993 152.395 0)
(359.335 152.532 0)
(359.657 152.675 0)
(359.974 152.807 0)
(360.346 152.932 0)
(360.768 153.062 0)
(361.198 153.185 0)
(361.618 153.314 0)
(362.024 153.454 0)
(362.418 153.605 0)
(362.795 153.764 0)
(363.135 153.944 0)
(363.442 154.14 0)
(363.793 154.317 0)
(364.208 154.458 0)
(364.647 154.566 0)
(365.087 154.658 0)
(365.502 154.77 0)
(365.903 154.888 0)
(366.286 155.013 0)
(366.627 155.134 0)
(366.93 155.294 0)
(367.275 155.434 0)
(367.578 155.578 0)
(573.758 5.87302 0)
(505.255 72.4747 0)
(379.098 148.882 0)
(364.656 152.293 0)
(364.515 154.472 0)
(364.535 154.946 0)
(364.122 154.559 0)
(364.358 154.607 0)
(364.416 154.722 0)
(364.371 154.721 0)
(364.355 154.679 0)
(364.385 154.702 0)
(364.366 154.706 0)
(364.191 154.665 0)
(363.583 154.448 0)
(361.939 153.901 0)
(358.941 152.979 0)
(356.175 152.152 0)
(354.817 151.9 0)
(354.346 151.803 0)
(354.066 151.731 0)
(353.812 151.62 0)
(353.654 151.486 0)
(353.559 151.367 0)
(353.537 151.278 0)
(353.577 151.232 0)
(353.681 151.213 0)
(353.833 151.219 0)
(354.026 151.232 0)
(354.256 151.246 0)
(354.501 151.279 0)
(354.746 151.334 0)
(355.019 151.398 0)
(355.328 151.462 0)
(355.659 151.521 0)
(356 151.59 0)
(356.346 151.667 0)
(356.687 151.743 0)
(357.005 151.82 0)
(357.299 151.891 0)
(357.628 151.967 0)
(358.002 152.061 0)
(358.38 152.16 0)
(358.747 152.295 0)
(359.114 152.442 0)
(359.477 152.587 0)
(359.826 152.733 0)
(360.157 152.874 0)
(360.518 153.014 0)
(360.928 153.15 0)
(361.348 153.275 0)
(361.771 153.39 0)
(362.187 153.516 0)
(362.6 153.658 0)
(363.004 153.813 0)
(363.384 153.983 0)
(363.712 154.181 0)
(364.014 154.395 0)
(364.37 154.563 0)
(364.777 154.686 0)
(365.2 154.769 0)
(365.632 154.831 0)
(366.042 154.895 0)
(366.429 154.984 0)
(366.801 155.072 0)
(367.143 155.204 0)
(367.491 155.337 0)
(367.706 155.547 0)
(579.97 0.0339837 0)
(575.283 5.13448 0)
(493.823 71.0256 0)
(396.413 139.331 0)
(367.388 157.318 0)
(364.209 155.298 0)
(364.095 154.383 0)
(364.687 154.69 0)
(364.498 154.816 0)
(364.283 154.657 0)
(364.342 154.639 0)
(364.435 154.719 0)
(364.369 154.755 0)
(364.103 154.689 0)
(363.276 154.38 0)
(361.285 153.726 0)
(358.093 152.823 0)
(355.685 152.166 0)
(354.614 152.016 0)
(354.225 151.933 0)
(353.944 151.84 0)
(353.701 151.699 0)
(353.559 151.547 0)
(353.479 151.403 0)
(353.477 151.322 0)
(353.533 151.285 0)
(353.663 151.288 0)
(353.839 151.308 0)
(354.046 151.328 0)
(354.283 151.345 0)
(354.533 151.377 0)
(354.784 151.428 0)
(355.046 151.488 0)
(355.347 151.553 0)
(355.686 151.61 0)
(356.046 151.666 0)
(356.412 151.73 0)
(356.771 151.792 0)
(357.108 151.856 0)
(357.412 151.928 0)
(357.725 152.022 0)
(358.088 152.125 0)
(358.467 152.23 0)
(358.846 152.37 0)
(359.234 152.52 0)
(359.625 152.665 0)
(360 152.808 0)
(360.342 152.961 0)
(360.671 153.117 0)
(361.055 153.257 0)
(361.461 153.384 0)
(361.884 153.489 0)
(362.326 153.578 0)
(362.764 153.682 0)
(363.189 153.817 0)
(363.591 153.973 0)
(363.955 154.152 0)
(364.267 154.358 0)
(364.557 154.575 0)
(364.9 154.749 0)
(365.285 154.866 0)
(365.687 154.931 0)
(366.101 154.951 0)
(366.511 154.971 0)
(366.9 155.015 0)
(367.261 155.126 0)
(367.633 155.257 0)
(367.837 155.469 0)
(580 1.35119e-05 0)
(579.978 0.0241626 0)
(574.438 5.261 0)
(510.669 67.3393 0)
(382.543 146.779 0)
(365.167 151.874 0)
(364.88 153.952 0)
(364.971 155.093 0)
(364.148 154.951 0)
(363.922 154.314 0)
(364.445 154.412 0)
(364.612 154.646 0)
(364.359 154.765 0)
(363.924 154.674 0)
(362.858 154.27 0)
(360.522 153.549 0)
(357.365 152.683 0)
(355.31 152.189 0)
(354.476 152.089 0)
(354.119 152.018 0)
(353.841 151.894 0)
(353.616 151.724 0)
(353.479 151.558 0)
(353.435 151.419 0)
(353.437 151.358 0)
(353.511 151.339 0)
(353.661 151.359 0)
(353.858 151.393 0)
(354.085 151.427 0)
(354.324 151.452 0)
(354.572 151.471 0)
(354.821 151.504 0)
(355.073 151.565 0)
(355.347 151.642 0)
(355.667 151.716 0)
(356.025 151.778 0)
(356.408 151.828 0)
(356.797 151.869 0)
(357.167 151.919 0)
(357.504 151.994 0)
(357.817 152.098 0)
(358.145 152.223 0)
(358.507 152.358 0)
(358.895 152.502 0)
(359.305 152.643 0)
(359.722 152.774 0)
(360.119 152.902 0)
(360.472 153.043 0)
(360.788 153.189 0)
(361.138 153.319 0)
(361.532 153.438 0)
(361.944 153.546 0)
(362.378 153.64 0)
(362.833 153.715 0)
(363.285 153.798 0)
(363.714 153.92 0)
(364.109 154.072 0)
(364.449 154.257 0)
(364.733 154.468 0)
(365.007 154.684 0)
(365.324 154.868 0)
(365.678 154.995 0)
(366.047 155.06 0)
(366.448 155.065 0)
(366.863 155.039 0)
(367.249 155.092 0)
(367.639 155.202 0)
(367.864 155.385 0)
(580 4.20063e-09 0)
(580 1.01805e-05 0)
(579.976 0.0265652 0)
(576.082 4.30793 0)
(503.025 64.3702 0)
(397.39 137.759 0)
(368.437 155.065 0)
(365.124 157.15 0)
(362.773 155.036 0)
(363.935 154.01 0)
(365.076 154.278 0)
(364.925 154.567 0)
(364.272 154.69 0)
(363.6 154.593 0)
(362.353 154.143 0)
(359.744 153.355 0)
(356.804 152.489 0)
(355.012 152.164 0)
(354.377 152.081 0)
(354.041 152.001 0)
(353.748 151.851 0)
(353.52 151.678 0)
(353.398 151.521 0)
(353.39 151.42 0)
(353.409 151.394 0)
(353.502 151.406 0)
(353.652 151.429 0)
(353.856 151.449 0)
(354.097 151.469 0)
(354.351 151.492 0)
(354.612 151.517 0)
(354.869 151.549 0)
(355.125 151.601 0)
(355.386 151.678 0)
(355.668 151.764 0)
(356.005 151.847 0)
(356.383 151.918 0)
(356.783 151.966 0)
(357.178 152.005 0)
(357.543 152.071 0)
(357.876 152.178 0)
(358.196 152.317 0)
(358.531 152.465 0)
(358.917 152.594 0)
(359.343 152.703 0)
(359.765 152.808 0)
(360.163 152.922 0)
(360.531 153.042 0)
(360.851 153.173 0)
(361.166 153.305 0)
(361.537 153.426 0)
(361.935 153.542 0)
(362.346 153.649 0)
(362.777 153.742 0)
(363.227 153.813 0)
(363.678 153.877 0)
(364.099 153.969 0)
(364.481 154.106 0)
(364.806 154.281 0)
(365.076 154.497 0)
(365.325 154.714 0)
(365.593 154.904 0)
(365.895 155.031 0)
(366.245 155.103 0)
(366.622 155.109 0)
(366.991 155.15 0)
(367.355 155.26 0)
(367.569 155.436 0)
(580 2.42033e-12 0)
(580 3.58157e-09 0)
(580 1.02122e-05 0)
(579.985 0.0167912 0)
(575.839 4.06072 0)
(514.349 58.3962 0)
(400.758 135.772 0)
(365.677 158.368 0)
(361.338 154.04 0)
(364.75 154.163 0)
(365.555 154.658 0)
(364.66 154.828 0)
(363.923 154.702 0)
(363.253 154.433 0)
(361.871 153.965 0)
(359.019 153.14 0)
(356.238 152.389 0)
(354.732 152.16 0)
(354.261 152.025 0)
(353.935 151.89 0)
(353.631 151.713 0)
(353.397 151.572 0)
(353.31 151.46 0)
(353.288 151.415 0)
(353.316 151.426 0)
(353.424 151.466 0)
(353.587 151.499 0)
(353.802 151.498 0)
(354.058 151.481 0)
(354.341 151.479 0)
(354.628 151.501 0)
(354.903 151.546 0)
(355.169 151.607 0)
(355.431 151.682 0)
(355.69 151.772 0)
(355.993 151.857 0)
(356.362 151.932 0)
(356.758 151.994 0)
(357.151 152.054 0)
(357.523 152.133 0)
(357.874 152.229 0)
(358.204 152.346 0)
(358.524 152.475 0)
(358.892 152.588 0)
(359.298 152.69 0)
(359.715 152.775 0)
(360.116 152.862 0)
(360.486 152.97 0)
(360.811 153.092 0)
(361.11 153.224 0)
(361.444 153.349 0)
(361.814 153.469 0)
(362.194 153.591 0)
(362.58 153.704 0)
(362.987 153.801 0)
(363.41 153.876 0)
(363.828 153.933 0)
(364.215 154.014 0)
(364.56 154.132 0)
(364.857 154.299 0)
(365.099 154.498 0)
(365.328 154.701 0)
(365.569 154.849 0)
(365.841 154.964 0)
(366.137 155.014 0)
(366.436 155.096 0)
(366.728 155.195 0)
(366.853 155.388 0)
(580 1.10837e-12 0)
(580 2.04384e-12 0)
(580 2.79096e-09 0)
(580 6.82539e-06 0)
(579.985 0.0160566 0)
(577.136 2.99219 0)
(519.193 54.6148 0)
(394.726 137.177 0)
(369.197 149.539 0)
(367.212 155.863 0)
(364.468 155.517 0)
(363.736 154.936 0)
(363.688 154.298 0)
(363.285 154.091 0)
(361.56 153.697 0)
(358.271 153.006 0)
(355.512 152.583 0)
(354.408 152.364 0)
(354.015 152.139 0)
(353.724 151.872 0)
(353.433 151.622 0)
(353.224 151.473 0)
(353.165 151.412 0)
(353.125 151.403 0)
(353.151 151.42 0)
(353.264 151.45 0)
(353.441 151.469 0)
(353.667 151.455 0)
(353.953 151.419 0)
(354.282 151.396 0)
(354.606 151.417 0)
(354.898 151.476 0)
(355.172 151.542 0)
(355.438 151.604 0)
(355.7 151.668 0)
(355.978 151.745 0)
(356.316 151.838 0)
(356.683 151.942 0)
(357.053 152.051 0)
(357.416 152.157 0)
(357.767 152.26 0)
(358.095 152.363 0)
(358.409 152.454 0)
(358.753 152.526 0)
(359.145 152.581 0)
(359.547 152.642 0)
(359.935 152.724 0)
(360.296 152.826 0)
(360.62 152.938 0)
(360.907 153.069 0)
(361.19 153.214 0)
(361.503 153.347 0)
(361.836 153.467 0)
(362.178 153.57 0)
(362.534 153.664 0)
(362.905 153.751 0)
(363.275 153.834 0)
(363.621 153.937 0)
(363.939 154.053 0)
(364.228 154.196 0)
(364.477 154.344 0)
(364.713 154.497 0)
(364.928 154.61 0)
(365.152 154.695 0)
(365.368 154.726 0)
(365.59 154.79 0)
(365.798 154.912 0)
(365.789 155.101 0)
(580 4.60384e-13 0)
(580 1.03042e-12 0)
(580 1.95346e-12 0)
(580 2.05233e-09 0)
(580 5.84488e-06 0)
(579.992 0.00865203 0)
(577.489 2.66326 0)
(522.991 47.3181 0)
(411.374 127.708 0)
(369.498 160.36 0)
(361.368 155.29 0)
(363.912 154.139 0)
(364.281 153.915 0)
(363.611 153.846 0)
(361.292 153.466 0)
(357.386 152.772 0)
(354.85 152.813 0)
(354.021 152.63 0)
(353.644 152.374 0)
(353.365 152.048 0)
(353.136 151.75 0)
(353.01 151.54 0)
(352.948 151.45 0)
(352.897 151.461 0)
(352.914 151.482 0)
(353.033 151.474 0)
(353.221 151.436 0)
(353.467 151.365 0)
(353.8 151.294 0)
(354.171 151.257 0)
(354.508 151.278 0)
(354.803 151.34 0)
(355.079 151.4 0)
(355.348 151.443 0)
(355.615 151.481 0)
(355.888 151.559 0)
(356.181 151.683 0)
(356.498 151.826 0)
(356.826 151.967 0)
(357.159 152.092 0)
(357.492 152.192 0)
(357.815 152.268 0)
(358.124 152.328 0)
(358.435 152.385 0)
(358.779 152.443 0)
(359.143 152.511 0)
(359.503 152.601 0)
(359.84 152.709 0)
(360.144 152.822 0)
(360.415 152.937 0)
(360.665 153.059 0)
(360.928 153.173 0)
(361.21 153.267 0)
(361.514 153.33 0)
(361.833 153.394 0)
(362.158 153.471 0)
(362.481 153.557 0)
(362.785 153.667 0)
(363.067 153.791 0)
(363.329 153.957 0)
(363.564 154.121 0)
(363.794 154.276 0)
(363.987 154.379 0)
(364.164 154.484 0)
(364.307 154.521 0)
(364.445 154.603 0)
(364.618 154.689 0)
(364.561 154.815 0)
(580 3.37996e-13 0)
(580 1.09591e-12 0)
(580 1.0735e-12 0)
(580 1.42097e-12 0)
(580 1.38445e-09 0)
(580 3.22673e-06 0)
(579.993 0.00678368 0)
(578.149 1.94616 0)
(537.075 40.0638 0)
(406.777 131.399 0)
(370.73 147.402 0)
(366.629 153.922 0)
(364.088 154.813 0)
(362.893 154.333 0)
(360.124 153.102 0)
(356.251 152.329 0)
(354.495 152.819 0)
(353.64 152.861 0)
(353.186 152.583 0)
(352.892 152.252 0)
(352.736 151.954 0)
(352.675 151.674 0)
(352.62 151.532 0)
(352.592 151.468 0)
(352.611 151.435 0)
(352.727 151.389 0)
(352.928 151.315 0)
(353.196 151.212 0)
(353.536 151.143 0)
(353.88 151.152 0)
(354.185 151.218 0)
(354.461 151.288 0)
(354.731 151.333 0)
(355.008 151.347 0)
(355.284 151.361 0)
(355.549 151.436 0)
(355.796 151.578 0)
(356.043 151.746 0)
(356.317 151.89 0)
(356.627 151.995 0)
(356.952 152.079 0)
(357.262 152.154 0)