/*--------------------------------*- C++ -*----------------------------------*\
| =========                 |                                                 |
| \\      /  F ield         | OpenFOAM: The Open Source CFD Toolbox           |
|  \\    /   O peration     | Version:  2306                                  |
|   \\  /    A nd           | Website:  www.openfoam.com                      |
|    \\/     M anipulation  |                                                 |
\*---------------------------------------------------------------------------*/
FoamFile
{
    version     2.0;
    format      ascii;
    arch        "LSB;label=32;scalar=64";
    class       volVectorField;
    location    "6e-05";
    object      U;
}
// * * * * * * * * * * * * * * * * * * * * * * * * * * * * * * * * * * * * * //

dimensions      [0 1 -1 0 0 0 0];

internalField   nonuniform List<vector> 
8941
(
(580 -2.22466e-13 0)
(580 -2.99034e-13 0)
(580 -1.83738e-13 0)
(580 -2.74389e-14 0)
(580 1.93338e-13 0)
(580 3.17522e-13 0)
(580 3.09598e-13 0)
(580 2.23318e-13 0)
(580 -1.09954e-14 0)
(580 -2.28968e-14 0)
(580 4.4299e-14 0)
(580 4.04965e-14 0)
(580 6.87433e-14 0)
(580 4.80046e-14 0)
(580 -1.88422e-13 0)
(580 -1.40129e-13 0)
(580 -1.27926e-13 0)
(580 -7.03636e-13 0)
(580 -7.71589e-13 0)
(580 -1.1519e-12 0)
(580 -8.81933e-13 0)
(580 -2.33571e-13 0)
(580 3.05985e-13 0)
(580 2.94319e-13 0)
(580 1.07351e-13 0)
(580 6.94085e-13 0)
(580 5.71807e-13 0)
(580 4.57158e-13 0)
(580 9.84888e-14 0)
(580 8.88049e-14 0)
(580 9.12877e-14 0)
(580 2.12534e-13 0)
(580 2.82999e-13 0)
(580 2.4218e-13 0)
(580 -1.45043e-13 0)
(580 4.64006e-13 0)
(580 3.59485e-13 0)
(580 1.21704e-13 0)
(580 -3.56113e-13 0)
(580 -6.32126e-13 0)
(580 -3.64122e-13 0)
(580 5.36617e-14 0)
(580 1.49459e-13 0)
(580 2.54447e-13 0)
(580 1.52298e-14 0)
(580 4.54249e-13 0)
(580 6.39562e-13 0)
(580 3.95811e-13 0)
(580 2.82242e-13 0)
(580 2.56991e-13 0)
(580 2.16275e-13 0)
(580 3.99446e-13 0)
(580 4.8119e-13 0)
(580 3.76768e-13 0)
(580 3.15197e-13 0)
(580 2.50089e-13 0)
(580 1.3008e-13 0)
(580 1.14053e-13 0)
(580 1.13782e-13 0)
(580 2.75873e-13 0)
(580 3.95016e-13 0)
(580 4.66466e-13 0)
(580 4.22947e-13 0)
(580 8.40635e-14 0)
(580 -1.73586e-13 0)
(580 1.51623e-13 0)
(580 2.54583e-13 0)
(580 9.12494e-14 0)
(580 1.0855e-13 0)
(580 -1.39629e-13 0)
(580 5.05208e-13 0)
(580 6.48945e-13 0)
(580 8.57752e-13 0)
(580 4.45763e-13 0)
(580 6.65677e-13 0)
(580 4.8272e-13 0)
(580 4.08299e-13 0)
(580 6.35806e-13 0)
(580 8.58646e-13 0)
(580 1.04507e-12 0)
(580 -7.15562e-14 0)
(580 -4.27886e-14 0)
(580 -1.52088e-15 0)
(580 4.49548e-15 0)
(580 3.51563e-13 0)
(580 3.93393e-13 0)
(580 1.09934e-13 0)
(580 1.53508e-14 0)
(580 3.21871e-15 0)
(580 2.56804e-13 0)
(580 4.05362e-13 0)
(580 5.82257e-13 0)
(580 5.78788e-13 0)
(580 3.2996e-13 0)
(580 -5.35443e-14 0)
(580 -7.03217e-14 0)
(580 -1.30159e-13 0)
(580 -5.82839e-13 0)
(580 -9.19137e-13 0)
(580 -8.64383e-13 0)
(580 -4.42139e-13 0)
(580 1.88891e-13 0)
(580 1.29384e-12 0)
(580 1.15861e-12 0)
(580 7.38773e-13 0)
(580 9.38843e-13 0)
(580 7.77502e-13 0)
(580 5.53341e-13 0)
(580 6.40815e-13 0)
(580 3.75186e-13 0)
(580 4.73074e-13 0)
(580 4.92887e-13 0)
(580 3.97679e-13 0)
(580 6.23774e-13 0)
(580 6.97157e-14 0)
(580 2.92598e-13 0)
(580 1.57638e-13 0)
(580 -1.65767e-13 0)
(580 -9.34781e-13 0)
(580 -1.04657e-12 0)
(580 -5.36076e-13 0)
(580 -1.39529e-13 0)
(580 -2.55794e-13 0)
(580 1.12347e-13 0)
(580 5.92384e-13 0)
(580 7.09695e-13 0)
(580 1.10204e-12 0)
(580 7.62188e-13 0)
(580 5.70571e-13 0)
(580 5.52539e-13 0)
(580 5.08196e-13 0)
(580 4.25456e-13 0)
(580 4.49132e-13 0)
(580 5.78255e-13 0)
(580 4.55786e-13 0)
(580 5.32122e-13 0)
(580 5.14088e-13 0)
(580 4.34995e-13 0)
(580 2.48414e-13 0)
(580 1.17894e-13 0)
(580 1.48803e-13 0)
(580 3.26997e-13 0)
(580 2.49788e-13 0)
(580 -3.92468e-16 0)
(580 3.86154e-14 0)
(580 2.24415e-13 0)
(580 5.20916e-13 0)
(580 5.09862e-13 0)
(580 7.41126e-13 0)
(580 4.77213e-13 0)
(580 1.02263e-12 0)
(580 1.39297e-12 0)
(580 1.64698e-12 0)
(580 1.38728e-12 0)
(580 1.1297e-12 0)
(580 1.04602e-12 0)
(580 1.08597e-12 0)
(580 1.72151e-12 0)
(580 2.15327e-12 0)
(580 2.11187e-12 0)
(580 -8.58445e-15 0)
(580 -5.19237e-14 0)
(580 6.34024e-14 0)
(580 -2.50554e-13 0)
(580 -2.28684e-13 0)
(580 -4.03097e-13 0)
(580 -4.19884e-13 0)
(580 -1.35369e-13 0)
(580 1.77603e-13 0)
(580 1.9912e-13 0)
(580 1.62136e-13 0)
(580 6.17567e-14 0)
(580 -1.68784e-13 0)
(580 -3.75982e-13 0)
(580 -9.93904e-13 0)
(580 -1.19059e-12 0)
(580 -1.22801e-12 0)
(580 -9.00538e-13 0)
(580 -6.54188e-13 0)
(580 -4.83025e-13 0)
(580 -3.37333e-13 0)
(580 -2.17152e-13 0)
(580 -1.47858e-13 0)
(580 2.27733e-13 0)
(580 2.41752e-13 0)
(580 5.20484e-13 0)
(580 1.00576e-12 0)
(580 1.22609e-12 0)
(580 1.44655e-12 0)
(580 1.35932e-12 0)
(580 1.35154e-12 0)
(580 1.11416e-12 0)
(580 6.89639e-13 0)
(580 7.74572e-13 0)
(580 5.24116e-13 0)
(580 1.82536e-13 0)
(580 -3.26902e-13 0)
(580 -7.11876e-13 0)
(580 -9.35982e-13 0)
(580 -8.21922e-13 0)
(580 -9.97944e-13 0)
(580 -9.19506e-13 0)
(580 -7.83837e-14 0)
(580 9.78746e-13 0)
(580 1.33117e-12 0)
(580 9.81737e-13 0)
(580 5.63884e-13 0)
(580 4.91646e-13 0)
(580 3.50703e-13 0)
(580 4.8447e-13 0)
(580 6.32609e-13 0)
(580 1.18583e-13 0)
(580 3.89278e-13 0)
(580 9.96991e-13 0)
(580 1.21905e-12 0)
(580 9.41071e-13 0)
(580 6.57859e-13 0)
(580 3.77281e-13 0)
(580 -7.70661e-14 0)
(580 -1.69819e-13 0)
(580 -3.5181e-13 0)
(580 -6.00907e-13 0)
(580 -6.03084e-13 0)
(580 -2.60095e-13 0)
(580 -3.34892e-13 0)
(580 -1.39698e-13 0)
(580 -4.53049e-13 0)
(580 -5.44071e-13 0)
(580 -5.87712e-13 0)
(580 -3.9718e-13 0)
(580 -8.24739e-14 0)
(580 2.59861e-13 0)
(580 1.56879e-12 0)
(580 1.66743e-12 0)
(580 1.98367e-12 0)
(580 1.76354e-12 0)
(580 1.80525e-12 0)
(580 2.19935e-12 0)
(580 2.41287e-12 0)
(580 2.44941e-12 0)
(580 1.00389e-13 0)
(580 3.06423e-15 0)
(580 9.44501e-14 0)
(580 1.86185e-13 0)
(580 6.30598e-14 0)
(580 1.25432e-13 0)
(580 1.93568e-13 0)
(580 2.037e-13 0)
(580 1.83369e-13 0)
(580 9.24922e-14 0)
(580 -9.07147e-14 0)
(580 -4.11601e-13 0)
(580 -8.40692e-13 0)
(580 -8.2802e-13 0)
(580 -8.44813e-13 0)
(580 -7.48258e-13 0)
(580 -7.10807e-13 0)
(580 -8.75156e-13 0)
(580 -7.5607e-13 0)
(580 -2.41961e-13 0)
(580 -9.2141e-14 0)
(580 -6.35233e-14 0)
(580 -1.13481e-13 0)
(580 2.7135e-14 0)
(580 3.39545e-13 0)
(580 6.15421e-13 0)
(580 7.45432e-13 0)
(580 1.27953e-12 0)
(580 1.22824e-12 0)
(580 1.25622e-12 0)
(580 8.19684e-13 0)
(580 5.34309e-13 0)
(580 4.69131e-13 0)
(580 5.2774e-13 0)
(580 3.78768e-13 0)
(580 -1.90475e-13 0)
(580 -4.31398e-13 0)
(580 -1.11017e-12 0)
(580 -8.20071e-13 0)
(580 -7.75106e-13 0)
(580 -1.02828e-12 0)
(580 -9.83744e-13 0)
(580 -5.62376e-13 0)
(580 -5.25142e-14 0)
(580 3.19993e-13 0)
(580 5.51504e-13 0)
(580 5.42931e-13 0)
(580 5.84632e-13 0)
(580 6.11091e-13 0)
(580 6.89185e-13 0)
(580 6.11393e-13 0)
(580 7.88188e-13 0)
(580 5.3428e-13 0)
(580 4.51197e-13 0)
(580 7.82583e-13 0)
(580 1.15592e-12 0)
(580 1.03432e-12 0)
(580 7.40305e-13 0)
(580 7.44265e-14 0)
(580 -1.80548e-13 0)
(580 -1.93857e-13 0)
(580 2.26562e-14 0)
(580 -2.58445e-13 0)
(580 -5.396e-13 0)
(580 -2.44091e-13 0)
(580 1.86572e-14 0)
(580 6.14562e-13 0)
(580 1.18187e-12 0)
(580 1.14075e-12 0)
(580 6.64808e-13 0)
(580 1.94638e-13 0)
(580 2.86561e-13 0)
(580 3.496e-13 0)
(580 7.25142e-13 0)
(580 1.28106e-12 0)
(580 1.26222e-12 0)
(580 1.07022e-12 0)
(580 1.04427e-12 0)
(580 9.83269e-13 0)
(580 1.21625e-12 0)
(580 5.57295e-14 0)
(580 1.99044e-13 0)
(580 3.55712e-13 0)
(580 7.34939e-13 0)
(580 7.48975e-13 0)
(580 6.02066e-13 0)
(580 5.03683e-13 0)
(580 1.99669e-13 0)
(580 1.78899e-13 0)
(580 1.42258e-13 0)
(580 -4.97686e-14 0)
(580 3.69242e-15 0)
(580 -3.0215e-13 0)
(580 -3.42927e-13 0)
(580 -2.86517e-13 0)
(580 -4.18193e-13 0)
(580 -6.62511e-13 0)
(580 -6.76539e-13 0)
(580 -4.76651e-13 0)
(580 9.5468e-14 0)
(580 1.66662e-13 0)
(580 2.16107e-13 0)
(580 3.61157e-13 0)
(580 2.73925e-13 0)
(580 4.52649e-13 0)
(580 4.41761e-13 0)
(580 5.99867e-13 0)
(580 5.35443e-13 0)
(580 5.71846e-13 0)
(580 3.91856e-13 0)
(580 6.57184e-14 0)
(580 -1.75113e-13 0)
(580 -1.4701e-13 0)
(580 -4.24768e-14 0)
(580 -4.71076e-13 0)
(580 -4.86301e-13 0)
(580 -3.98617e-13 0)
(580 -2.17714e-13 0)
(580 8.87878e-14 0)
(580 -4.95318e-13 0)
(580 -5.45763e-13 0)
(580 -4.7646e-13 0)
(580 -6.1553e-13 0)
(580 -8.59315e-13 0)
(580 -6.00531e-13 0)
(580 4.56738e-14 0)
(580 7.03427e-13 0)
(580 6.489e-13 0)
(580 7.09338e-13 0)
(580 8.84774e-13 0)
(580 1.11683e-12 0)
(580 1.17919e-12 0)
(580 1.1279e-12 0)
(580 1.09822e-12 0)
(580 1.08862e-12 0)
(580 1.41563e-12 0)
(580 1.29741e-12 0)
(580 9.10598e-13 0)
(580 4.96632e-13 0)
(580 1.26311e-13 0)
(580 -5.62251e-14 0)
(580 6.73972e-14 0)
(580 1.74432e-13 0)
(580 6.82534e-13 0)
(580 9.25871e-13 0)
(580 3.24625e-13 0)
(580 4.0311e-13 0)
(580 6.45426e-13 0)
(580 8.15465e-13 0)
(580 1.22601e-12 0)
(580 1.48974e-12 0)
(580 1.92861e-12 0)
(580 1.79703e-12 0)
(580 1.70209e-12 0)
(580 1.25268e-12 0)
(580 1.32465e-12 0)
(580 1.34574e-12 0)
(580 1.20347e-12 0)
(580 1.21483e-12 0)
(580 1.54899e-12 0)
(580 -1.34249e-13 0)
(580 -2.23894e-14 0)
(580 2.20478e-13 0)
(580 2.53491e-13 0)
(580 2.9762e-13 0)
(580 3.27961e-13 0)
(580 1.79658e-13 0)
(580 -6.48639e-14 0)
(580 -1.97761e-13 0)
(580 -2.58985e-13 0)
(580 -2.44055e-13 0)
(580 -7.20527e-14 0)
(580 -7.77616e-16 0)
(580 6.88907e-14 0)
(580 7.67919e-14 0)
(580 -2.05642e-13 0)
(580 -4.11983e-13 0)
(580 -4.06402e-13 0)
(580 -3.76972e-13 0)
(580 -2.61942e-13 0)
(580 -1.853e-13 0)
(580 8.88426e-15 0)
(580 1.99729e-13 0)
(580 2.99194e-14 0)
(580 -5.1171e-14 0)
(580 -2.61023e-13 0)
(580 -4.07203e-13 0)
(580 -5.28596e-13 0)
(580 -4.21159e-13 0)
(580 -4.704e-13 0)
(580 -5.08321e-13 0)
(580 -5.76698e-13 0)
(580 -9.74022e-13 0)
(580 -1.13262e-12 0)
(580 -1.12001e-12 0)
(580 -1.01421e-12 0)
(580 -5.97483e-13 0)
(580 1.98214e-13 0)
(580 1.02512e-13 0)
(580 -4.80405e-13 0)
(580 -3.03554e-13 0)
(580 -4.47375e-13 0)
(580 -5.69611e-13 0)
(580 -6.5321e-13 0)
(580 -7.59883e-13 0)
(580 -3.42231e-13 0)
(580 -2.77314e-13 0)
(580 -4.33009e-13 0)
(580 -4.02631e-13 0)
(580 -1.09864e-13 0)
(580 2.60649e-13 0)
(580 2.67268e-13 0)
(580 9.16216e-13 0)
(580 8.85401e-13 0)
(580 7.06373e-13 0)
(580 6.96493e-13 0)
(580 6.86759e-13 0)
(580 3.3276e-13 0)
(580 1.91828e-13 0)
(580 -3.86138e-14 0)
(580 9.31932e-14 0)
(580 2.51131e-13 0)
(580 6.75499e-13 0)
(580 7.05378e-13 0)
(580 2.70306e-13 0)
(580 -5.94783e-14 0)
(580 -2.1736e-13 0)
(580 4.31943e-14 0)
(580 2.51373e-13 0)
(580 8.42938e-13 0)
(580 1.06901e-12 0)
(580 1.40411e-12 0)
(580 1.78401e-12 0)
(580 1.97597e-12 0)
(580 1.96885e-12 0)
(580 2.01384e-12 0)
(580 1.80625e-12 0)
(580 1.76731e-12 0)
(580 1.75849e-12 0)
(580 1.56061e-12 0)
(580 -4.34752e-15 0)
(580 3.34227e-14 0)
(580 -5.45417e-14 0)
(580 -1.1933e-13 0)
(580 1.35698e-14 0)
(580 2.55981e-13 0)
(580 9.61545e-14 0)
(580 -1.32777e-13 0)
(580 -4.45583e-13 0)
(580 -8.46216e-13 0)
(580 -8.26042e-13 0)
(580 -7.05364e-13 0)
(580 -4.45463e-13 0)
(580 -3.91554e-13 0)
(580 -3.89325e-13 0)
(580 -3.37481e-13 0)
(580 -2.40702e-13 0)
(580 -2.23425e-13 0)
(580 -3.78052e-13 0)
(580 -5.64379e-13 0)
(580 -5.04747e-13 0)
(580 -4.60547e-13 0)
(580 -5.34529e-13 0)
(580 -5.48173e-13 0)
(580 -6.02417e-13 0)
(580 -7.02289e-13 0)
(580 -8.80511e-13 0)
(580 -1.02536e-12 0)
(580 -1.14842e-12 0)
(580 -1.14545e-12 0)
(580 -1.18826e-12 0)
(580 -1.12443e-12 0)
(580 -1.37475e-12 0)
(580 -1.54475e-12 0)
(580 -1.53203e-12 0)
(580 -1.40237e-12 0)
(580 -1.01071e-12 0)
(580 -4.76767e-13 0)
(580 -2.45335e-13 0)
(580 -2.36491e-13 0)
(580 -3.14703e-13 0)
(580 -2.76361e-13 0)
(580 -2.01729e-13 0)
(580 -3.30022e-13 0)
(580 -4.77661e-13 0)
(580 -4.68192e-13 0)
(580 1.55424e-13 0)
(580 4.04754e-13 0)
(580 2.68107e-13 0)
(580 1.82417e-13 0)
(580 1.86842e-13 0)
(580 1.56569e-13 0)
(580 4.58443e-13 0)
(580 5.43392e-13 0)
(580 3.63191e-13 0)
(580 1.00279e-13 0)
(580 -3.77948e-13 0)
(580 -7.58078e-13 0)
(580 -5.49236e-13 0)
(580 -2.44747e-13 0)
(580 1.52129e-13 0)
(580 3.13673e-13 0)
(580 3.61728e-13 0)
(580 1.67114e-13 0)
(580 1.73801e-13 0)
(580 6.17652e-13 0)
(580 5.33857e-13 0)
(580 6.82024e-13 0)
(580 9.16798e-13 0)
(580 1.25449e-12 0)
(580 1.2675e-12 0)
(580 1.29127e-12 0)
(580 1.35023e-12 0)
(580 1.34347e-12 0)
(580 1.61038e-12 0)
(580 1.67469e-12 0)
(580 1.69865e-12 0)
(580 1.64972e-12 0)
(580 1.59735e-12 0)
(580 1.45866e-12 0)
(580 4.88802e-14 0)
(580 9.16196e-14 0)
(580 4.20068e-14 0)
(580 6.21098e-14 0)
(580 1.82765e-14 0)
(580 -9.11395e-14 0)
(580 -2.4702e-13 0)
(580 -1.71925e-13 0)
(580 -2.67726e-13 0)
(580 -4.05526e-13 0)
(580 -5.71488e-13 0)
(580 -5.95833e-13 0)
(580 -5.74366e-13 0)
(580 -5.16667e-13 0)
(580 -5.58409e-13 0)
(580 -4.58682e-13 0)
(580 -4.37732e-13 0)
(580 -7.43225e-13 0)
(580 -8.13865e-13 0)
(580 -8.94401e-13 0)
(580 -7.71863e-13 0)
(580 -8.63651e-13 0)
(580 -1.03077e-12 0)
(580 -1.16965e-12 0)
(580 -1.03217e-12 0)
(580 -1.04316e-12 0)
(580 -6.52366e-13 0)
(580 -2.88703e-13 0)
(580 -5.80736e-13 0)
(580 -9.43901e-13 0)
(580 -1.05853e-12 0)
(580 -1.0157e-12 0)
(580 -1.25349e-12 0)
(580 -1.2624e-12 0)
(580 -9.96165e-13 0)
(580 -6.45386e-13 0)
(580 -4.71734e-13 0)
(580 -4.03829e-13 0)
(580 -1.7547e-14 0)
(580 3.72356e-13 0)
(580 1.7554e-13 0)
(580 1.98169e-13 0)
(580 1.36462e-13 0)
(580 -4.87836e-14 0)
(580 -6.32412e-13 0)
(580 -6.70747e-13 0)
(580 -4.53233e-13 0)
(580 3.71164e-13 0)
(580 5.70829e-13 0)
(580 1.9505e-13 0)
(580 2.59016e-13 0)
(580 4.52638e-13 0)
(580 2.53481e-13 0)
(580 2.72501e-13 0)
(580 2.53665e-13 0)
(580 -2.40931e-14 0)
(580 -1.67693e-13 0)
(580 -9.24968e-14 0)
(580 -8.29716e-15 0)
(580 -1.42941e-13 0)
(580 -6.55984e-14 0)
(580 2.18562e-13 0)
(580 3.88016e-13 0)
(580 5.67482e-13 0)
(580 9.20038e-13 0)
(580 1.371e-12 0)
(580 1.45087e-12 0)
(580 1.44542e-12 0)
(580 1.91835e-12 0)
(580 2.04713e-12 0)
(580 1.93959e-12 0)
(580 1.72375e-12 0)
(580 1.53415e-12 0)
(580 1.54783e-12 0)
(580 1.58243e-12 0)
(580 1.37833e-12 0)
(580 1.27944e-12 0)
(580 1.36411e-12 0)
(580 1.27314e-12 0)
(580 1.14399e-12 0)
(580 -2.61971e-14 0)
(580 -8.34072e-14 0)
(580 -9.25805e-14 0)
(580 -1.15531e-13 0)
(580 -3.54446e-13 0)
(580 -5.43095e-13 0)
(580 -4.3105e-13 0)
(580 -4.7988e-13 0)
(580 -4.1698e-13 0)
(580 -2.44653e-13 0)
(580 -2.5898e-13 0)
(580 -3.29956e-13 0)
(580 -3.68912e-13 0)
(580 -5.17498e-13 0)
(580 -6.62303e-13 0)
(580 -1.02852e-12 0)
(580 -1.53183e-12 0)
(580 -1.63055e-12 0)
(580 -1.67023e-12 0)
(580 -1.45761e-12 0)
(580 -1.26099e-12 0)
(580 -1.21564e-12 0)
(580 -1.18329e-12 0)
(580 -1.12183e-12 0)
(580 -8.28319e-13 0)
(580 -5.63012e-13 0)
(580 -3.71623e-13 0)
(580 -3.45866e-13 0)
(580 -3.67643e-13 0)
(580 -4.34053e-13 0)
(580 -4.86974e-13 0)
(580 -5.90067e-13 0)
(580 -6.97778e-13 0)
(580 -8.35183e-13 0)
(580 -7.248e-13 0)
(580 -5.75295e-13 0)
(580 -7.24522e-13 0)
(580 -8.7923e-13 0)
(580 -7.8617e-13 0)
(580 -2.43694e-13 0)
(580 1.46764e-13 0)
(580 9.65232e-14 0)
(580 -3.03615e-13 0)
(580 -4.50709e-13 0)
(580 -4.03305e-13 0)
(580 1.68883e-14 0)
(580 3.97651e-14 0)
(580 7.44891e-14 0)
(580 1.20957e-13 0)
(580 2.68351e-13 0)
(580 6.63493e-13 0)
(580 6.68804e-13 0)
(580 2.98589e-13 0)
(580 2.45686e-13 0)
(580 3.20076e-13 0)
(580 3.16974e-13 0)
(580 4.73124e-13 0)
(580 6.8481e-13 0)
(580 4.90259e-13 0)
(580 5.73101e-13 0)
(580 5.98966e-13 0)
(580 7.91623e-13 0)
(580 1.09859e-12 0)
(580 1.39527e-12 0)
(580 1.4609e-12 0)
(580 1.54009e-12 0)
(580 2.14208e-12 0)
(580 2.44374e-12 0)
(580 2.78244e-12 0)
(580 2.77885e-12 0)
(580 2.68067e-12 0)
(580 2.51127e-12 0)
(580 2.20752e-12 0)
(580 2.1158e-12 0)
(580 1.99844e-12 0)
(580 1.5972e-12 0)
(580 1.19028e-12 0)
(580 1.0854e-12 0)
(580 9.09285e-13 0)
(580 7.7062e-13 0)
(580 -2.06299e-13 0)
(580 -3.61072e-13 0)
(580 -3.82219e-13 0)
(580 -4.33015e-13 0)
(580 -4.09712e-13 0)
(580 -4.0843e-13 0)
(580 -3.63187e-13 0)
(580 -3.95523e-13 0)
(580 -3.52562e-13 0)
(580 -3.94339e-14 0)
(580 6.92673e-14 0)
(580 -8.39379e-14 0)
(580 -2.68656e-13 0)
(580 -7.09329e-13 0)
(580 -9.81581e-13 0)
(580 -1.21358e-12 0)
(580 -1.40357e-12 0)
(580 -1.37598e-12 0)
(580 -1.51177e-12 0)
(580 -1.27e-12 0)
(580 -1.18479e-12 0)
(580 -8.37789e-13 0)
(580 -5.5647e-13 0)
(580 -6.0301e-14 0)
(580 -1.58385e-14 0)
(580 1.87955e-14 0)
(580 -1.04829e-14 0)
(580 -4.38777e-13 0)
(580 -3.187e-13 0)
(580 -2.48978e-13 0)
(580 -1.93794e-13 0)
(580 -1.21067e-13 0)
(580 -2.57557e-13 0)
(580 -4.50237e-13 0)
(580 -6.56115e-13 0)
(580 -5.13213e-13 0)
(580 -4.64393e-13 0)
(580 -6.61129e-13 0)
(580 -7.57536e-13 0)
(580 -6.26991e-13 0)
(580 -1.46944e-13 0)
(580 -1.33639e-13 0)
(580 -2.38812e-13 0)
(580 -8.1851e-14 0)
(580 3.2533e-13 0)
(580 4.97913e-13 0)
(580 6.0045e-13 0)
(580 1.59593e-13 0)
(580 2.93793e-14 0)
(580 1.87585e-13 0)
(580 5.14743e-13 0)
(580 5.90328e-13 0)
(580 6.337e-13 0)
(580 7.49864e-13 0)
(580 7.12327e-13 0)
(580 8.50317e-13 0)
(580 9.25599e-13 0)
(580 1.08255e-12 0)
(580 1.08265e-12 0)
(580 1.19733e-12 0)
(580 1.37591e-12 0)
(580 1.69913e-12 0)
(580 1.97292e-12 0)
(580 2.1095e-12 0)
(580 2.30424e-12 0)
(580 2.53744e-12 0)
(580 2.79325e-12 0)
(580 2.92702e-12 0)
(580 3.18506e-12 0)
(580 3.35274e-12 0)
(580 3.20739e-12 0)
(580 3.19619e-12 0)
(580 3.03248e-12 0)
(580 2.28063e-12 0)
(580 1.9982e-12 0)
(580 1.69852e-12 0)
(580 1.6763e-12 0)
(580 1.38923e-12 0)
(580 1.32401e-12 0)
(580 1.17565e-12 0)
(580 2.36133e-15 0)
(580 -3.21909e-14 0)
(580 -1.11213e-13 0)
(580 -1.91696e-13 0)
(580 -2.07372e-13 0)
(580 -1.60602e-13 0)
(580 -7.29872e-14 0)
(580 1.98178e-13 0)
(580 2.43888e-13 0)
(580 1.20329e-13 0)
(580 5.51486e-14 0)
(580 -2.69483e-13 0)
(580 -4.69582e-13 0)
(580 -5.94703e-13 0)
(580 -7.91666e-13 0)
(580 -5.06979e-13 0)
(580 -3.88483e-13 0)
(580 -4.43344e-13 0)
(580 -6.9463e-13 0)
(580 -9.95165e-13 0)
(580 -1.04401e-12 0)
(580 -1.04995e-12 0)
(580 -8.16285e-13 0)
(580 -3.54629e-13 0)
(580 -3.02987e-13 0)
(580 -3.15956e-13 0)
(580 -3.75995e-13 0)
(580 -6.1862e-13 0)
(580 -6.07353e-13 0)
(580 -7.17961e-13 0)
(580 -5.30339e-13 0)
(580 -3.90674e-13 0)
(580 -3.4662e-13 0)
(580 -2.54526e-13 0)
(580 -2.28382e-13 0)
(580 -1.62374e-13 0)
(580 -5.34954e-14 0)
(580 -1.34687e-13 0)
(580 -4.8032e-13 0)
(580 -1.95514e-13 0)
(580 2.04914e-13 0)
(580 3.71445e-13 0)
(580 4.02875e-13 0)
(580 4.22653e-13 0)
(580 5.71452e-13 0)
(580 6.00483e-13 0)
(580 6.06757e-13 0)
(580 5.30305e-13 0)
(580 5.38695e-13 0)
(580 5.62248e-13 0)
(580 4.4538e-13 0)
(580 4.38632e-13 0)
(580 7.35603e-13 0)
(580 8.02816e-13 0)
(580 7.4813e-13 0)
(580 7.82379e-13 0)
(580 1.12787e-12 0)
(580 1.45874e-12 0)
(580 1.87623e-12 0)
(580 1.95204e-12 0)
(580 1.76211e-12 0)
(580 1.66308e-12 0)
(580 2.29252e-12 0)
(580 2.68041e-12 0)
(580 2.8467e-12 0)
(580 3.16052e-12 0)
(580 3.0931e-12 0)
(580 3.26853e-12 0)
(580 3.32789e-12 0)
(580 3.23119e-12 0)
(580 3.37093e-12 0)
(580 3.34124e-12 0)
(580 3.38523e-12 0)
(580 3.20225e-12 0)
(580 2.67238e-12 0)
(580 2.51404e-12 0)
(580 2.4928e-12 0)
(580 2.43591e-12 0)
(580 2.16983e-12 0)
(580 1.86764e-12 0)
(580 2.87383e-14 0)
(580 7.56833e-14 0)
(580 5.17147e-14 0)
(580 1.08258e-13 0)
(580 2.6059e-14 0)
(580 1.13606e-13 0)
(580 9.95227e-14 0)
(580 3.55883e-13 0)
(580 2.9216e-13 0)
(580 -1.94551e-14 0)
(580 -4.98388e-13 0)
(580 -4.76083e-13 0)
(580 -5.99404e-13 0)
(580 -3.62139e-13 0)
(580 6.58446e-14 0)
(580 -5.91477e-15 0)
(580 1.03631e-14 0)
(580 1.07436e-14 0)
(580 -4.99723e-14 0)
(580 -2.29883e-13 0)
(580 -3.39651e-13 0)
(580 -4.42757e-13 0)
(580 -5.28366e-13 0)
(580 -7.88039e-13 0)
(580 -8.72377e-13 0)
(580 -1.00438e-12 0)
(580 -1.0659e-12 0)
(580 -9.75862e-13 0)
(580 -9.31893e-13 0)
(580 -7.91287e-13 0)
(580 -1.07704e-12 0)
(580 -1.05932e-12 0)
(580 -8.00389e-13 0)
(580 -1.21221e-13 0)
(580 -3.50081e-14 0)
(580 -1.77447e-13 0)
(580 -2.84432e-13 0)
(580 -2.09367e-13 0)
(580 -1.45142e-13 0)
(580 7.96935e-14 0)
(580 -2.8054e-13 0)
(580 -2.40534e-13 0)
(580 2.70596e-13 0)
(580 3.68186e-13 0)
(580 6.13612e-13 0)
(580 7.14325e-13 0)
(580 6.11737e-13 0)
(580 6.15869e-13 0)
(580 1.02568e-12 0)
(580 1.05702e-12 0)
(580 1.14681e-12 0)
(580 1.1572e-12 0)
(580 1.17131e-12 0)
(580 1.25081e-12 0)
(580 1.35262e-12 0)
(580 1.41053e-12 0)
(580 1.59216e-12 0)
(580 1.78123e-12 0)
(580 2.09399e-12 0)
(580 2.19881e-12 0)
(580 2.00282e-12 0)
(580 2.01608e-12 0)
(580 2.46967e-12 0)
(580 2.57662e-12 0)
(580 2.69394e-12 0)
(580 2.98512e-12 0)
(580 2.99615e-12 0)
(580 3.05313e-12 0)
(580 2.88392e-12 0)
(580 2.80845e-12 0)
(580 3.13398e-12 0)
(580 3.45271e-12 0)
(580 3.58583e-12 0)
(580 3.49249e-12 0)
(580 3.27176e-12 0)
(580 2.93285e-12 0)
(580 2.86549e-12 0)
(580 2.8216e-12 0)
(580 2.48002e-12 0)
(580 2.18006e-12 0)
(580 -5.18405e-14 0)
(580 -1.71612e-13 0)
(580 7.16858e-14 0)
(580 3.97436e-14 0)
(580 2.61624e-14 0)
(580 -5.03495e-14 0)
(580 -1.24667e-13 0)
(580 -2.06302e-13 0)
(580 -2.75079e-13 0)
(580 -5.90834e-13 0)
(580 -7.28124e-13 0)
(580 -5.83907e-13 0)
(580 -1.99224e-13 0)
(580 -1.02036e-14 0)
(580 1.14824e-13 0)
(580 5.78109e-14 0)
(580 -3.10342e-14 0)
(580 -1.32674e-13 0)
(580 3.22872e-14 0)
(580 1.19956e-13 0)
(580 -4.03442e-14 0)
(580 -3.1329e-14 0)
(580 -5.70464e-14 0)
(580 -4.97794e-13 0)
(580 -9.22103e-13 0)
(580 -1.15704e-12 0)
(580 -1.33178e-12 0)
(580 -1.2307e-12 0)
(580 -1.12764e-12 0)
(580 -1.04171e-12 0)
(580 -8.40394e-13 0)
(580 -6.61667e-13 0)
(580 -7.40678e-13 0)
(580 -4.94499e-13 0)
(580 -5.22146e-13 0)
(580 -4.32961e-13 0)
(580 -4.99924e-13 0)
(580 -3.13584e-13 0)
(580 -9.27778e-14 0)
(580 -5.49215e-14 0)
(580 -1.9359e-13 0)
(580 -1.34193e-13 0)
(580 1.78925e-13 0)
(580 6.49562e-13 0)
(580 1.10477e-12 0)
(580 1.02279e-12 0)
(580 7.19555e-13 0)
(580 6.35572e-13 0)
(580 8.70044e-13 0)
(580 1.22262e-12 0)
(580 1.35128e-12 0)
(580 1.24343e-12 0)
(580 1.22254e-12 0)
(580 1.41914e-12 0)
(580 1.69628e-12 0)
(580 1.92018e-12 0)
(580 1.97796e-12 0)
(580 2.18429e-12 0)
(580 2.42602e-12 0)
(580 2.72928e-12 0)
(580 2.70063e-12 0)
(580 2.99917e-12 0)
(580 2.91407e-12 0)
(580 2.87717e-12 0)
(580 3.00045e-12 0)
(580 2.95908e-12 0)
(580 2.8434e-12 0)
(580 2.96862e-12 0)
(580 3.02311e-12 0)
(580 3.19597e-12 0)
(580 3.32258e-12 0)
(580 3.45265e-12 0)
(580 3.18292e-12 0)
(580 3.05198e-12 0)
(580 2.95828e-12 0)
(580 2.88573e-12 0)
(580 2.81133e-12 0)
(580 2.6569e-12 0)
(580 2.41222e-12 0)
(580 2.34276e-12 0)
(580 7.26267e-14 0)
(580 2.70572e-14 0)
(580 5.58948e-14 0)
(580 4.21145e-14 0)
(580 -6.53695e-16 0)
(580 -1.35194e-13 0)
(580 -1.85174e-13 0)
(580 -2.67219e-13 0)
(580 -3.80531e-13 0)
(580 -2.9345e-13 0)
(580 -1.40357e-13 0)
(580 -1.67017e-13 0)
(580 7.15696e-14 0)
(580 8.90276e-14 0)
(580 -7.67478e-14 0)
(580 3.42078e-14 0)
(580 -1.26048e-13 0)
(580 -1.38505e-13 0)
(580 5.07092e-14 0)
(580 1.0711e-13 0)
(580 2.02194e-13 0)
(580 -1.17912e-13 0)
(580 -2.12485e-13 0)
(580 -2.68837e-13 0)
(580 -3.95544e-13 0)
(580 -6.47763e-13 0)
(580 -8.53383e-13 0)
(580 -7.70347e-13 0)
(580 -6.34276e-13 0)
(580 -6.66305e-13 0)
(580 -4.95307e-13 0)
(580 -3.70451e-13 0)
(580 -3.17719e-13 0)
(580 -4.2815e-13 0)
(580 -3.25504e-13 0)
(580 -9.88787e-14 0)
(580 -3.9979e-14 0)
(580 -6.04937e-14 0)
(580 -6.66859e-14 0)
(580 -5.13319e-16 0)
(580 2.18769e-13 0)
(580 7.25558e-13 0)
(580 8.67224e-13 0)
(580 1.33756e-12 0)
(580 1.32804e-12 0)
(580 1.11643e-12 0)
(580 9.98802e-13 0)
(580 1.2565e-12 0)
(580 1.426e-12 0)
(580 1.41649e-12 0)
(580 1.20992e-12 0)
(580 1.24395e-12 0)
(580 1.42662e-12 0)
(580 1.69556e-12 0)
(580 1.86715e-12 0)
(580 1.91745e-12 0)
(580 2.07208e-12 0)
(580 2.20737e-12 0)
(580 2.50063e-12 0)
(580 2.85526e-12 0)
(580 3.25213e-12 0)
(580 3.38007e-12 0)
(580 3.12323e-12 0)
(580 3.27724e-12 0)
(580 3.36134e-12 0)
(580 3.30026e-12 0)
(580 3.01436e-12 0)
(580 3.17232e-12 0)
(580 3.13615e-12 0)
(580 3.26376e-12 0)
(580 3.03399e-12 0)
(580 2.69374e-12 0)
(580 2.21527e-12 0)
(580 1.94747e-12 0)
(580 1.97485e-12 0)
(580 2.20424e-12 0)
(580 2.12628e-12 0)
(580 1.88809e-12 0)
(580 2.00396e-12 0)
(580 2.17379e-12 0)
(580 8.69489e-14 0)
(580 2.4105e-13 0)
(580 1.75459e-13 0)
(580 2.53289e-13 0)
(580 2.4615e-13 0)
(580 4.63439e-14 0)
(580 6.97622e-14 0)
(580 4.71469e-14 0)
(580 1.92698e-14 0)
(580 1.49505e-16 0)
(580 3.69021e-14 0)
(580 -1.72841e-14 0)
(580 -1.79487e-13 0)
(580 -2.51528e-13 0)
(580 -5.27758e-13 0)
(580 -3.59755e-13 0)
(580 -8.63335e-14 0)
(580 7.6901e-14 0)
(580 5.14879e-14 0)
(580 -1.99307e-14 0)
(580 1.60881e-13 0)
(580 1.91189e-13 0)
(580 1.248e-15 0)
(580 -1.60066e-13 0)
(580 -1.36903e-13 0)
(580 -2.91048e-13 0)
(580 -3.49554e-13 0)
(580 -3.17959e-13 0)
(580 -2.51115e-13 0)
(580 -1.35694e-14 0)
(580 7.29577e-14 0)
(580 1.37166e-13 0)
(580 1.48084e-13 0)
(580 -6.82755e-14 0)
(580 -5.46995e-14 0)
(580 9.39518e-14 0)
(580 3.02916e-13 0)
(580 2.76933e-13 0)
(580 4.50691e-13 0)
(580 5.23092e-13 0)
(580 8.3177e-13 0)
(580 1.20009e-12 0)
(580 1.57449e-12 0)
(580 1.44427e-12 0)
(580 1.08558e-12 0)
(580 1.1543e-12 0)
(580 1.38698e-12 0)
(580 1.67549e-12 0)
(580 1.56153e-12 0)
(580 1.25604e-12 0)
(580 1.32114e-12 0)
(580 1.57281e-12 0)
(580 1.8913e-12 0)
(580 1.94511e-12 0)
(580 1.92283e-12 0)
(580 2.00304e-12 0)
(580 1.98088e-12 0)
(580 2.1595e-12 0)
(580 2.38111e-12 0)
(580 2.67437e-12 0)
(580 3.12209e-12 0)
(580 3.14201e-12 0)
(580 3.14229e-12 0)
(580 3.19034e-12 0)
(580 3.42483e-12 0)
(580 3.29621e-12 0)
(580 3.28313e-12 0)
(580 3.27298e-12 0)
(580 2.97463e-12 0)
(580 2.6244e-12 0)
(580 2.00859e-12 0)
(580 1.76621e-12 0)
(580 1.71361e-12 0)
(580 1.5516e-12 0)
(580 1.4917e-12 0)
(580 1.45227e-12 0)
(580 1.46763e-12 0)
(580 1.6383e-12 0)
(580 1.90365e-12 0)
(580 1.8898e-12 0)
(580 -7.51013e-15 0)
(580 1.13186e-13 0)
(580 1.00935e-13 0)
(580 -4.0878e-14 0)
(580 -3.18719e-13 0)
(580 -2.54231e-13 0)
(580 -2.38522e-13 0)
(580 -2.59914e-13 0)
(580 -1.22331e-13 0)
(580 -6.27819e-14 0)
(580 -9.36113e-14 0)
(580 -8.05224e-14 0)
(580 -3.29695e-13 0)
(580 -3.09576e-13 0)
(580 -3.06415e-13 0)
(580 -4.05047e-13 0)
(580 -2.54028e-13 0)
(580 -2.38304e-13 0)
(580 -9.40368e-14 0)
(580 -8.29776e-14 0)
(580 -3.70432e-13 0)
(580 -3.1027e-13 0)
(580 -3.83029e-13 0)
(580 -3.91844e-13 0)
(580 -3.90552e-13 0)
(580 -3.68344e-13 0)
(580 -2.87047e-13 0)
(580 -4.31986e-13 0)
(580 -3.0739e-13 0)
(580 -3.77359e-14 0)
(580 1.07072e-13 0)
(580 2.73713e-13 0)
(580 3.99075e-13 0)
(580 3.68579e-13 0)
(580 2.83073e-13 0)
(580 -2.5535e-14 0)
(580 1.47621e-13 0)
(580 5.07483e-13 0)
(580 9.50076e-13 0)
(580 9.98508e-13 0)
(580 1.14239e-12 0)
(580 1.12759e-12 0)
(580 1.17041e-12 0)
(580 8.30919e-13 0)
(580 8.08394e-13 0)
(580 9.58922e-13 0)
(580 1.12243e-12 0)
(580 1.25947e-12 0)
(580 1.08755e-12 0)
(580 1.10641e-12 0)
(580 1.31181e-12 0)
(580 1.62548e-12 0)
(580 1.61042e-12 0)
(580 1.75116e-12 0)
(580 1.82183e-12 0)
(580 1.78334e-12 0)
(580 1.91913e-12 0)
(580 2.05111e-12 0)
(580 2.19165e-12 0)
(580 2.69024e-12 0)
(580 3.16117e-12 0)
(580 3.29549e-12 0)
(580 3.25787e-12 0)
(580 3.05215e-12 0)
(580 3.11762e-12 0)
(580 3.20325e-12 0)
(580 2.68747e-12 0)
(580 2.32071e-12 0)
(580 1.76076e-12 0)
(580 1.89538e-12 0)
(580 1.76564e-12 0)
(580 1.9259e-12 0)
(580 1.8421e-12 0)
(580 2.07732e-12 0)
(580 2.13177e-12 0)
(580 1.97771e-12 0)
(580 2.10818e-12 0)
(580 2.24014e-12 0)
(580 2.61776e-12 0)
(580 2.43262e-12 0)
(580 9.85568e-15 0)
(580 -5.88099e-14 0)
(580 -2.95854e-13 0)
(580 -4.97128e-13 0)
(580 -5.95983e-13 0)
(580 -4.45352e-13 0)
(580 -6.56014e-13 0)
(580 -6.25224e-13 0)
(580 -3.89327e-13 0)
(580 -1.63552e-13 0)
(580 1.74865e-13 0)
(580 2.65699e-13 0)
(580 1.64846e-13 0)
(580 2.32e-13 0)
(580 2.233e-13 0)
(580 3.47009e-15 0)
(580 -1.70988e-13 0)
(580 -4.19243e-13 0)
(580 -5.32269e-13 0)
(580 -6.05777e-13 0)
(580 -6.97462e-13 0)
(580 -7.46915e-13 0)
(580 -7.45252e-13 0)
(580 -7.49058e-13 0)
(580 -6.84973e-13 0)
(580 -7.80325e-13 0)
(580 -9.0784e-13 0)
(580 -8.68904e-13 0)
(580 -6.18017e-13 0)
(580 -6.23077e-13 0)
(580 -2.35066e-13 0)
(580 -1.99403e-13 0)
(580 -7.00553e-14 0)
(580 1.92945e-13 0)
(580 2.51822e-13 0)
(580 4.69442e-13 0)
(580 7.8074e-13 0)
(580 7.13348e-13 0)
(580 6.3463e-13 0)
(580 5.68287e-13 0)
(580 4.58125e-13 0)
(580 4.60137e-13 0)
(580 5.47035e-13 0)
(580 7.6951e-13 0)
(580 1.14481e-12 0)
(580 1.02162e-12 0)
(580 6.85588e-13 0)
(580 5.55802e-13 0)
(580 7.05602e-13 0)
(580 1.2574e-12 0)
(580 1.47017e-12 0)
(580 1.48469e-12 0)
(580 1.70849e-12 0)
(580 1.75515e-12 0)
(580 1.73725e-12 0)
(580 1.89294e-12 0)
(580 2.18718e-12 0)
(580 2.19534e-12 0)
(580 2.30106e-12 0)
(580 2.47189e-12 0)
(580 3.0461e-12 0)
(580 3.17656e-12 0)
(580 2.989e-12 0)
(580 2.69504e-12 0)
(580 2.37285e-12 0)
(580 2.65687e-12 0)
(580 2.72748e-12 0)
(580 1.88397e-12 0)
(580 1.65277e-12 0)
(580 1.59474e-12 0)
(580 1.50851e-12 0)
(580 1.6736e-12 0)
(580 1.83319e-12 0)
(580 2.04908e-12 0)
(580 2.0375e-12 0)
(580 2.09192e-12 0)
(580 2.14187e-12 0)
(580 2.61538e-12 0)
(580 2.72908e-12 0)
(580 2.91588e-12 0)
(580 1.23299e-14 0)
(580 -2.39778e-14 0)
(580 -3.41103e-13 0)
(580 -5.99102e-13 0)
(580 -4.44966e-13 0)
(580 -4.29506e-13 0)
(580 -3.60933e-13 0)
(580 -3.27466e-13 0)
(580 -2.52574e-13 0)
(580 -4.51877e-14 0)
(580 2.50435e-13 0)
(580 2.79674e-13 0)
(580 5.1024e-13 0)
(580 6.74537e-13 0)
(580 6.5289e-13 0)
(580 3.02957e-13 0)
(580 -2.78986e-14 0)
(580 -1.39753e-13 0)
(580 -3.2994e-13 0)
(580 -4.78481e-13 0)
(580 -8.30959e-13 0)
(580 -1.01636e-12 0)
(580 -1.07334e-12 0)
(580 -1.17112e-12 0)
(580 -1.1827e-12 0)
(580 -1.06591e-12 0)
(580 -1.0274e-12 0)
(580 -8.38752e-13 0)
(580 -7.13401e-13 0)
(580 -5.04346e-13 0)
(580 -5.31194e-13 0)
(580 -7.56836e-13 0)
(580 -7.60808e-13 0)
(580 -4.76484e-13 0)
(580 -8.19675e-14 0)
(580 9.33466e-14 0)
(580 4.14496e-14 0)
(580 1.43341e-13 0)
(580 2.1326e-13 0)
(580 4.50719e-13 0)
(580 5.39326e-13 0)
(580 5.76876e-13 0)
(580 5.00114e-13 0)
(580 5.78769e-13 0)
(580 6.21406e-13 0)
(580 7.81291e-13 0)
(580 9.97626e-13 0)
(580 1.12309e-12 0)
(580 1.12128e-12 0)
(580 1.04177e-12 0)
(580 1.33486e-12 0)
(580 1.57751e-12 0)
(580 1.84885e-12 0)
(580 1.94572e-12 0)
(580 1.9825e-12 0)
(580 2.47382e-12 0)
(580 2.77589e-12 0)
(580 2.66598e-12 0)
(580 2.52309e-12 0)
(580 2.53417e-12 0)
(580 2.53759e-12 0)
(580 2.45085e-12 0)
(580 2.83872e-12 0)
(580 3.01522e-12 0)
(580 2.52903e-12 0)
(580 2.50093e-12 0)
(580 2.20376e-12 0)
(580 2.103e-12 0)
(580 2.06776e-12 0)
(580 1.79535e-12 0)
(580 1.73441e-12 0)
(580 1.65922e-12 0)
(580 1.7387e-12 0)
(580 1.70946e-12 0)