/*--------------------------------*- C++ -*----------------------------------*\
| =========                 |                                                 |
| \\      /  F ield         | OpenFOAM: The Open Source CFD Toolbox           |
|  \\    /   O peration     | Version:  2306                                  |
|   \\  /    A nd           | Website:  www.openfoam.com                      |
|    \\/     M anipulation  |                                                 |
\*---------------------------------------------------------------------------*/
FoamFile
{
    version     2.0;
    format      ascii;
    arch        "LSB;label=32;scalar=64";
    class       volScalarField;
    location    "2e-05";
    object      p;
}
// * * * * * * * * * * * * * * * * * * * * * * * * * * * * * * * * * * * * * //

dimensions      [1 -1 -2 0 0 0 0];

internalField   nonuniform List<scalar> 
9032
(
121782
120821
119824
118874
118006
117207
116444
115736
115035
114318
113628
112995
112363
111685
111164
110641
110077
109500
108926
108359
107799
107289
106868
106461
106019
105506
104975
104509
104151
103908
103748
103597
103354
102981
102520
102040
101600
101233
100961
100779
100626
100414
100105
99719.9
99295.2
98869.8
98490
98184.9
97980.4
97876.1
97826
97757.2
97611.1
97365.5
97068.1
96764.3
96464.7
96196.3
95975.4
95776.5
95582.1
95387.7
95166.1
94945.7
94717.9
94530.2
94335.5
94201.1
121333
120389
119442
118521
117677
116914
116174
115458
114753
114043
113346
112692
112069
111398
110873
110348
109792
109219
108610
108000
107434
106913
106427
105973
105534
105067
104596
104176
103835
103569
103354
103144
102869
102504
102084
101661
101279
100958
100703
100485
100261
99993.9
99669.4
99303.1
98921.1
98550.4
98222.9
97954.7
97758.9
97625.6
97524.9
97416.4
97260.1
97029.4
96758.1
96468.9
96179
95914.1
95681
95461.6
95264.7
95066.3
94852.3
94628.6
94403.4
94208.8
94008.2
93871.9
120912
119924
118981
118127
117367
116678
115993
115273
114528
113776
113039
112342
111723
111071
110481
109976
109427
108861
108315
107807
107343
106909
106496
106119
105772
105372
104896
104443
104058
103738
103467
103214
102932
102587
102195
101806
101465
101182
100938
100686
100390
100047
99676.9
99310.6
98967.1
98655.7
98387.7
98154
97955.1
97781.6
97623.4
97475.4
97320.6
97119.2
96885.4
96622.5
96342
96071.8
95824.3
95588.4
95390.6
95206.5
95016.9
94813
94577.2
94360.8
94112.8
93953.9
120536
119591
118675
117834
117093
116442
115795
115102
114349
113582
112838
112138
111506
110895
110242
109747
109201
108627
108074
107556
107083
106651
106243
105866
105556
105227
104774
104321
103925
103581
103282
103015
102747
102434
102065
101688
101358
101078
100824
100552
100236
99879
99498.7
99129.5
98796.1
98510.6
98276.5
98067.2
97873.6
97684.2
97497.7
97321.9
97153.8
96958.2
96744
96497.8
96228.7
95957.6
95700.8
95455.9
95256.4
95079.2
94909.1
94721.5
94488.1
94259.5
93991.3
93817.4
120227
119310
118438
117641
116916
116248
115578
114853
114078
113307
112574
111909
111288
110704
110085
109547
109025
108486
107958
107455
106982
106541
106137
105744
105429
105163
104737
104274
103860
103491
103175
102914
102687
102443
102122
101750
101388
101052
100739
100432
100123
99807.6
99478.7
99143.2
98815.9
98517.7
98266.9
98046.7
97856.6
97681.7
97510.7
97337.1
97152.1
96930.8
96695.7
96436.1
96170.9
95908.1
95661.1
95427.2
95231.3
95052
94885.6
94705.8
94487.1
94268.4
94016.8
93863.6
119990
119091
118231
117443
116716
116016
115309
114542
113775
113044
112355
111739
111146
110563
109976
109386
108867
108342
107819
107320
106839
106374
105921
105496
105152
104921
104554
104094
103671
103287
102958
102698
102500
102326
102076
101722
101336
100948
100579
100235
99925.1
99645.5
99370.8
99077.3
98761.7
98451.4
98178.7
97937.1
97741.8
97581.4
97428.4
97255.2
97049.7
96801.6
96553.3
96292.2
96038.2
95780.6
95531.5
95292.1
95081.6
94896.7
94734.8
94576.4
94385.6
94186.7
93949.1
93784.2
119812
118931
118086
117303
116562
115814
115063
114294
113532
112807
112170
111601
111036
110467
109887
109289
108750
108228
107711
107216
106708
106206
105753
105325
104952
104714
104420
103992
103576
103189
102853
102593
102402
102253
102049
101704
101276
100827
100411
100049
99751.6
99508.5
99284.5
99038.3
98742.5
98418.6
98115.1
97844.4
97645.6
97512.9
97397.9
97247.3
97039.3
96775
96500.8
96209
95935
95666
95426.8
95212.2
95025.4
94860.9
94694.3
94521.1
94317.3
94104.5
93879.5
93681.7
119542
118661
117822
117059
116335
115571
114791
114012
113250
112559
111964
111422
110879
110331
109766
109181
108622
108086
107556
107074
106577
106092
105657
105244
104859
104583
104326
103956
103568
103190
102837
102528
102269
102057
101839
101526
101120
100678
100280
99943.1
99657.1
99402.6
99162.3
98915.6
98629.3
98307.1
98005.4
97746.6
97573.7
97471.9
97383
97236.8
97004.5
96700.9
96387.6
96073.8
95799.8
95561.2
95371
95190.5
95001.1
94804.5
94583.2
94370.5
94144.8
93943.1
93764.3
93581.1
119176
118299
117498
116781
116068
115312
114540
113764
112990
112301
111733
111213
110703
110157
109591
108997
108423
107892
107386
106948
106485
106033
105609
105200
104798
104485
104226
103910
103549
103165
102771
102391
102058
101792
101573
101345
101056
100689
100320
99963
99613.6
99282.4
98983.1
98717.7
98457.1
98185.4
97939.8
97729.4
97583
97472.5
97342.5
97145
96873.3
96544
96240.1
95955.3
95720.9
95512.6
95330.7
95130.2
94899.4
94665.4
94418.8
94219
94018.3
93853.2
93711.3
93535.7
118862
117968
117186
116499
115812
115085
114331
113559
112786
112110
111527
110995
110481
109930
109364
108757
108173
107659
107199
106809
106377
105935
105521
105110
104698
104355
104063
103759
103409
103024
102619
102235
101902
101634
101424
101231
101003
100671
100284
99872.5
99460.8
99084.7
98764.9
98512.5
98302.1
98102.2
97918.7
97734
97566.2
97399
97199.8
96961.7
96699.3
96408.6
96146.1
95881.6
95643.2
95407.5
95188.7
94966.2
94736.7
94532.2
94328.3
94175.2
94000.1
93830.9
93658.2
93478.7
118590
117618
116863
116223
115601
114882
114119
113330
112552
111900
111330
110801
110264
109712
109128
108494
107913
107428
107002
106635
106199
105762
105355
104935
104528
104183
103867
103548
103211
102856
102493
102155
101857
101591
101352
101109
100845
100498
100104
99695.5
99296.7
98940.6
98639
98402.5
98211.9
98040.4
97870.9
97669.1
97460.1
97249.4
97037.5
96823.4
96590.2
96329.9
96061
95773.8
95496.7
95224.9
94996.7
94804.3
94638.7
94493.2
94314
94151.1
93955.4
93750.8
93512.6
93312.4
118345
117334
116598
115995
115434
114710
113929
113107
112305
111676
111126
110604
110079
109534
108921
108256
107685
107223
106809
106432
105976
105544
105140
104718
104330
104021
103724
103390
103051
102711
102379
102080
101814
101548
101265
100960
100637
100268
99892.9
99521.1
99168.8
98859.9
98585.5
98349.3
98137.3
97941.7
97751.4
97538.4
97344.8
97162.2
96981
96778.6
96525
96238.8
95926.6
95606.6
95301.8
95023.2
94842.2
94725.2
94615.7
94471.5
94255.9
94024.3
93771
93527.2
93282.3
93174.9
118003
117071
116343
115764
115246
114541
113790
112954
112076
111411
110858
110356
109874
109330
108718
108049
107510
107049
106633
106244
105784
105365
104959
104530
104142
103868
103639
103301
102940
102588
102258
101968
101709
101441
101129
100784
100420
100040
99695.6
99375.9
99077.5
98803.7
98534.2
98275.5
98028.1
97810.5
97621.3
97436.9
97295.3
97143.1
96963.8
96724.4
96424.5
96098.4
95747.5
95412.2
95123
94901.6
94783.1
94707.2
94574.7
94366.9
94095.1
93807.3
93520.4
93279.8
93070.3
93001.9
117547
116742
116066
115498
114949
114289
113608
112807
111888
111156
110571
110074
109629
109102
108525
107893
107379
106911
106483
106066
105616
105223
104831
104402
103991
103723
103584
103257
102858
102476
102118
101800
101524
101258
100960
100632
100282
99922.8
99603.4
99302.9
99011
98725.8
98435.5
98155.1
97891.1
97681
97520
97380.8
97265.6
97099.1
96880.9
96587.7
96257.8
95919.2
95586.9
95289.9
95042.4
94866.3
94755.2
94649.4
94461.8
94202.8
93898.2
93600.3
93316.9
93101.8
92927.9
92841.3
117330
116536
115850
115212
114539
113936
113329
112602
111752
110983
110354
109830
109407
108909
108369
107769
107244
106768
106318
105887
105463
105107
104751
104323
103869
103565
103471
103175
102745
102335
101950
101608
101325
101076
100821
100539
100214
99866.8
99541.1
99218.3
98902.2
98594.3
98296
98024.8
97787.6
97616
97468.8
97328.1
97170
96945.9
96682.1
96377.3
96063.8
95755.1
95466.4
95214.5
94997.6
94831.4
94683
94522.6
94289.5
94025.8
93738.6
93472.1
93210.5
93011
92833.8
92672.4
117161
116437
115716
114927
114184
113550
112976
112341
111636
110906
110253
109705
109262
108768
108249
107676
107127
106638
106162
105680
105244
104932
104636
104238
103777
103438
103310
103045
102621
102211
101825
101487
101201
100954
100715
100453
100133
99784.8
99439.2
99090.2
98753.8
98446.2
98184.1
97961.9
97770.4
97612.5
97423.8
97226.5
96994.4
96716
96433.6
96147.8
95866.1
95600
95358.3
95143.5
94934.4
94750
94544.2
94337
94086.1
93858.4
93609.9
93386.5
93155.1
92956
92755.8
92500.9
117330
116372
115636
114666
113944
113285
112684
112166
111515
110849
110218
109649
109115
108606
108110
107572
107020
106519
106009
105452
104993
104699
104444
104093
103678
103326
103123
102879
102502
102113
101749
101431
101145
100880
100619
100340
100006
99645.8
99279.5
98919.6
98598.5
98340.8
98145.5
97968.5
97791.5
97597.6
97352
97100.9
96809.3
96506.2
96217.8
95940.2
95676.4
95445.4
95236.7
95043.5
94827.3
94618.2
94360.6
94124.6
93873.7
93677.6
93462.6
93282.9
93084.6
92878.1
92660.9
92340.1
114365
116441
115525
114643
113858
113126
112517
111906
111354
110806
110202
109541
108908
108381
107921
107438
106937
106458
105932
105301
104772
104460
104229
103951
103610
103258
102988
102742
102413
102050
101706
101396
101095
100795
100488
100170
99810.1
99437.1
99076.3
98744.6
98469.1
98269.9
98129.5
97970.7
97782
97537.7
97248.3
96967.7
96656.7
96348.6
96054.2
95772
95508.6
95291.3
95094
94912
94691.5
94464
94172.4
93915.6
93660
93467.8
93266.7
93114.2
92942.9
92735.9
92521
92199.9
82828.3
113341
115168
114191
113453
112808
112209
111623
111200
110718
110078
109353
108625
108077
107691
107265
106861
106454
105953
105245
104636
104284
104053
103829
103544
103193
102883
102627
102330
101988
101653
101335
101005
100661
100308
99953.8
99581.8
99217.1
98884
98586.2
98359
98207.3
98086.9
97911.2
97684.4
97393.2
97084.4
96801
96500.2
96210.7
95926
95640.7
95369.4
95146
94942.9
94768.9
94550.9
94321.6
94014.3
93735.7
93465.4
93241.6
93029
92878.8
92725
92526.2
92331.2
92041.6
40767.3
91306.6
112989
113658
113325
112635
111879
111408
110974
110509
109869
109125
108357
107778
107424
107063
106728
106414
105941
105188
104534
104135
103896
103709
103454
103103
102779
102513
102219
101884
101549
101214
100854
100476
100099
99735.4
99368
99026.4
98735.2
98479.6
98285.6
98141.6
97989.9
97772.1
97504
97179.3
96869.2
96591.1
96301.8
96038.8
95774.7
95499.8
95230
95000.4
94788
94612.8
94401.5
94179.5
93883
93598.4
93321.7
93051.8
92808
92633.5
92479.8
92290.6
92114.4
91840.4
32125.6
46312.8
93097.8
113972
113731
112500
111742
111189
110692
110242
109603
108952
108277
107608
107199
106830
106502
106212
105787
105056
104422
104002
103758
103594
103370
103018
102681
102399
102105
101773
101427
101065
100672
100273
99890.9
99540.1
99204.7
98913.5
98673.1
98447.6
98249.4
98070.8
97864.8
97612.7
97315.8
96970.7
96654.7
96355.1
96050.4
95795.8
95548.5
95304.3
95066.1
94849.5
94627.2
94433.7
94223.3
94007.1
93742.2
93470.2
93204.4
92912.3
92649.3
92443.3
92268.6
92071.4
91894.3
91618.5
32000.2
32340.2
48420.1
98780
111502
111986
111824
111163
110375
109866
109386
108871
108339
107681
107105
106654
106250
105916
105515
104918
104374
103946
103669
103507
103323
102960
102583
102263
101963
101638
101287
100902
100483
100073
99708.9
99397.6
99123.9
98886.8
98675.9
98453.2
98231.1
98003.1
97741.1
97471.4
97160.1
96799.3
96471.6
96124.1
95785.1
95516.5
95288
95095
94905.5
94691.6
94443.5
94216.8
93996.6
93773.8
93541.9
93299.4
93068.6
92792.8
92540.2
92320.6
92116.7
91895.8
91694.4
91416.1
32000
32000.7
32489.3
53625.6
97795.1
112158
111788
110775
109999
109589
109204
108782
108382
107875
107190
106598
106099
105651
105216
104831
104397
103952
103646
103522
103354
102923
102500
102135
101812
101488
101133
100732
100304
99902.7
99561.1
99284.3
99063.2
98878.7
98678.2
98443.2
98175.5
97886.8
97588.4
97315.5
97005.3
96651.7
96317.4
95940.5
95588.3
95308.6
95094.3
94927.4
94764.6
94526.9
94246.3
93982.5
93748.4
93507.7
93290.1
93073.2
92872.6
92621.3
92391.4
92183.9
91970.6
91739.5
91518.5
91254
32000
32000
32001.4
32947
55475
99813.5
110828
110212
109722
109284
108854
108595
108226
107771
107165
106486
105937
105385
104989
104791
104437
104025
103740
103663
103353
102846
102398
102003
101648
101314
100972
100594
100183
99797.8
99472.6
99208.6
99003.4
98832.8
98611.2
98342.5
98022.4
97680
97357.9
97079.9
96773.5
96452.2
96130.6
95774.8
95449.2
95189.2
94987
94807
94637.3
94368.8
94069.5
93780.3
93519.1
93234.8
92997.8
92795
92611.1
92379.6
92171.7
91978.2
91759
91532.8
91318.4
91085.2
32000
32000
32000
32003.5
33224.6
55307.2
98649
109079
109698
109028
108504
108269
107920
107468
106934
106292
105720
105149
104813
104636
104371
104019
103795
103701
103246
102734
102254
101855
101486
101152
100843
100512
100131
99764.1
99436.8
99145.6
98907.5
98711.8
98466.9
98176.1
97798.6
97411.2
97060.7
96753.9
96444.7
96158.1
95875.7
95580.7
95314.1
95095.3
94891.4
94679.4
94478
94203.4
93914.1
93631.8
93357.4
93040.6
92772.7
92560.7
92352.1
92114
91909.2
91710.4
91479.1
91258.8
91063
90838
32000
32000
32000
32000
32004.7
33079.3
55113.3
95571.9
109737
108957
108329
107883
107497
107116
106607
106021
105484
104933
104626
104458
104272
103953
103723
103558
103087
102583
102107
101713
101349
101018
100741
100467
100131
99765.5
99413
99082.3
98798.5
98555.3
98288.2
97978.2
97572.5
97163.7
96784.2
96428.9
96101.3
95828.9
95589.4
95348.3
95122.1
94926.2
94708.5
94476.4
94251.1
93996.1
93729.8
93474.9
93203
92892.6
92629.1
92409.6
92152.9
91896.2
91683.6
91455
91193.6
90960.4
90769
90513.3
32000
32000
32000
32000
32000
32003.9
33114.7
51625.1
94918.8
106643
107861
107536
107131
106884
106395
105929
105506
105146
104796
104501
104262
103869
103539
103324
102927
102488
102051
101641
101272
100931
100657
100416
100113
99743.5
99368.6
99009.7
98686.9
98383.1
98080.6
97754
97361
96958.6
96565.4
96186
95848.8
95577.6
95355.3
95118.9
94885.9
94671.2
94425.3
94183.8
93953.6
93720.3
93479.2
93257.4
93002.4
92720.2
92489.3
92283.5
92010.4
91748.5
91535
91269.9
90982
90724.4
90500.1
90183.2
32000
32000
32000
32000
32000
32000
32003.9
32757.3
49877.4
89184.4
105698
108137
107631
106945
106589
106311
106137
105691
104960
104575
104433
104012
103530
103180
102892
102512
102116
101684
101270
100883
100553
100279
99984
99594.4
99198.1
98821.9
98468.6
98102.4
97745.1
97418.6
97093.3
96770.5
96431.9
96093.3
95772.7
95487
95232
94953
94681.7
94410.8
94118.4
93856.1
93624.3
93404.5
93184.2
92983.6
92739.8
92478.9
92275.2
92078.6
91808
91574.6
91391
91122.9
90849.5
90581.6
90311
89949.5
32000
32000
32000
32000
32000
32000
32000
32002.3
32564.2
45693.1
81031.1
104859
107624
107047
106609
106435
106035
105365
104718
104628
104748
104314
103728
103278
102925
102566
102171
101712
101225
100786
100374
100027
99703.2
99306.8
98895.6
98500.5
98106.6
97714.1
97350.8
97023.6
96730.4
96471
96199.8
95922
95646.1
95388.4
95139.6
94845.4
94556.3
94243.7
93916.2
93625.7
93372.7
93129.1
92902.6
92693.7
92446.6
92191.3
91997.1
91781.1
91505.6
91310.6
91143.4
90880.2
90644
90404
90128
89776.7
32000
32000
32000
32000
32000
32000
32000
32000.1
32001.4
32301.8
40639.7
75276
99723
105516
106480
106491
106043
105294
104650
104664
104903
104523
103850
103231
102784
102404
102024
101584
101092
100611
100158
99748.9
99372.6
98976.3
98560.1
98146.5
97720.8
97316.4
96943.5
96609.1
96339.7
96119.4
95897
95653.5
95394
95154.2
94911.7
94637.4
94376
94092.5
93795.6
93518.3
93258.1
92967.9
92713.2
92473.7
92210.5
91940.5
91723.3
91447
91154.7
90975.9
90781.7
90528
90320.7
90101.7
89844.7
89528.3
32000
32000
32000
32000
32000
32000
32000
32000.1
32000.3
32001.2
32115.2
37725.4
63640.9
97812.3
105030
106237
106431
105951
105211
104958
104936
104497
103776
103068
102548
102155
101799
101420
100974
100500
100011
99528.3
99087.8
98674.5
98290.1
97907.5
97511.9
97130.3
96755.1
96395.9
96097.1
95845.5
95606.4
95336.6
95047.6
94798.3
94541.3
94284.9
94054.2
93815.4
93570.2
93344.6
93115.5
92833.2
92586
92328.7
92067.6
91799
91539.4
91206.5
90891.3
90672
90410.9
90151.8
89935.5
89687.5
89448.2
89154.8
32000
32000
32000
32000
32000
32000
32000
32000.1
32000.3
32001
32003.6
32063.5
34614.1
55142.4
87576
102919
107136
106971
106010
105297
105045
104460
103790
103163
102555
102014
101564
101177
100812
100370
99860.5
99324.8
98833.4
98391.4
98004.5
97657.5
97330
97014.7
96698.3
96371.9
96068.6
95776.9
95483.5
95129.4
94772.2
94460.8
94146.3
93868.7
93645.2
93438.6
93229.8
93046.2
92818.1
92557.2
92335.1
92089.6
91859.9
91641.8
91371.1
91053.2
90772.4
90509.5
90191.9
89897.3
89626.4
89317.9
89065.4
88770.9
32000
32000
32000
32000
32000
32000
32000
32000.1
32000.3
32001
32003.8
32014.9
32061.8
33125.2
45988.4
73349.7
97585.5
104558
105820
105126
104858
104239
103640
102981
102292
101680
101167
100746
100399
99976
99443.2
98891.5
98402.4
97979.9
97606.4
97277.2
96987.2
96720.9
96449.3
96162.6
95893.9
95644.9
95385.3
95054.9
94703.2
94341.3
93953.3
93597
93310.4
93069.6
92862.8
92681.7
92426.5
92187.1
91963
91723.3
91519.8
91328.7
91064
90815.3
90614.1
90354.3
90076.9
89787.2
89476.5
89138.3
88859.4
88554.4
32000
32000
32000
32000
32000
32000
32000
32000.1
32000.3
32001
32003.8
32015.2
32055.4
32207.8
32964.8
38784.9
58508.1
82795.3
97645.6
102865
103228
103156
102910
102455
101746
101073
100460
100032
99674.8
99316.7
98845.5
98353.7
97913.7
97510
97129.1
96796
96517
96273.3
96018.1
95750.8
95504.3
95276.7
95033.5
94770.3
94506.6
94221.9
93887.5
93563.1
93244.6
92924.7
92660
92416.9
92119.1
91877.6
91615.2
91340.4
91112.2
90898.2
90642.2
90441.9
90280.9
90010.8
89788.6
89568.3
89298.2
89023.3
88771
88475.8
32000
32000
32000
32000
32000
32000
32000
32000.1
32000.3
32001
32003.8
32015
32055.7
32210.8
32745.9
34466.4
38099.7
47565.1
62807.3
82491
94083.3
101450
101989
101548
101167
100760
100075
99474.1
99019.8
98704.9
98418.4
98024.3
97622.6
97215.8
96828.8
96464.4
96132.3
95841.2
95543
95258.4
94998.8
94750.2
94509.2
94293.1
94099.4
93880
93602.7
93334
93073.3
92818.1
92593.4
92326.9
92015
91772.7
91469
91124.1
90839
90557
90252
90040.5
89826.7
89543.6
89350.7
89171.5
88947.1
88722.2
88516.7
88230.8
32000
32000
32000
32000
32000
32000
32000
32000.1
32000.3
32001
32003.9
32014.8
32056.2
32209.8
32754.7
34394.6
37754.7
40626.8
42874.5
48927.3
61726.5
79231.4
92052.6
97844.3
101007
100820
100287
99887.8
99409.9
98787.6
98340
98006.4
97643.9
97281.7
96940.1
96593.9
96248.4
95861.1
95447.2
95064.1
94695.9
94336.4
94019.3
93775.9
93595.8
93400.4
93157
92931.7
92697.6
92474.5
92279.6
92060.6
91819.6
91624.9
91378.1
91051.9
90778.4
90456.3
90093.8
89834.6
89506.4
89168.1
88923.4
88722.1
88500.2
88268.2
88075.8
87733
32000
32000
32000
32000
32000
32000
32000
32000.1
32000.3
32001
32003.9
32014.8
32056.2
32209.6
32756
34396.6
37712.9
40796.9
41865.9
42141.9
43133.2
47740.1
60038.8
75724.6
89888.9
95514.9
98155.6
99060.9
98738.7
98419.2
98013.3
97630.3
97309.2
96952.7
96590.2
96284.2
96018.8
95712.6
95415
95169.3
94854.5
94444
93990.7
93600.3
93289.8
92990.2
92702.6
92459.4
92211.5
91982.6
91796.8
91601.4
91412.5
91250.4
91032.4
90751.4
90533.3
90286.9
89982.3
89745.6
89414
89067.6
88759.1
88483.2
88204.7
87873.2
87622.2
87231.3
32000
32000
32000
32000
32000
32000
32000
32000.1
32000.3
32001
32003.9
32014.8
32056.1
32209.9
32755.6
34400.2
37689.6
40837.2
41939.6
42034.1
42045.8
42131.2
42940.4
46950.9
57216.9
72548.7
85745.8
94146.1
95268.4
96373.1
96587.5
96615.9
96478.1
96211.5
95829.6
95603.2
95447.2
95179.6
94924.1
94748.3
94533.8
94215.7
93923.9
93695.9
93438
93059.2
92629
92253.1
91914
91595
91336.4
91098
90891.8
90729.6
90501.7
90251.8
90074.1
89877
89627.4
89415.4
89154
88903.5
88694.5
88419
88134.8
87750.3
87384.6
87014.5
32000
32000
32000
32000
32000
32000
32000
32000.1
32000.3
32001
32003.9
32014.8
32056.1
32210
32755.2
34401.1
37688.5
40835.2
41948.2
42035.1
42041.5
42048.1
42071
42157
42748.9
45879.5
54117.8
67569.6
80600.7
90249.2
95661.5
95111.5
95350.7
95496.8
95138.1
94823.8
94644.4
94293.6
94070.7
93999.6
93908.8
93627.9
93423.6
93295.4
93144.1
92886.2
92606.5
92343.4
92046.9
91675.3
91274.2
90917.8
90630.7
90370.2
90044.7
89756.6
89550.5
89334.9
89103.6
88904.4
88683.2
88509.4
88359
88117.7
87871.1
87595.7
87261.4
86962.7
32000
32000
32000
32000
32000
32000
32000
32000.1
32000.3
32001
32003.9
32014.8
32056.1
32210
32755.1
34401.4
37688.4
40834.7
41947.8
42035.4
42041.6
42048.3
42067.3
42100.1
42141.2
42213.6
42604.9
44580
50637.5
61327.2
74283.8
84199.9
90846.1
94943.6
95157.1
94579.6
94658.6
94246.9
93680.7
93458.2
93157.8
92729.4
92582.2
92547.3
92497.5
92300
92106.5
91941.2
91727.9
91450.1
91169
90923.8
90697.6
90385.7
89977.7
89607.2
89320.3
89024.6
88713.5
88441.5
88180.2
88000.4
87825.4
87559.9
87335.1
87155.4
86900.7
86621.5
32000
32000
32000
32000
32000
32000
32000
32000.1
32000.3
32001
32003.9
32014.8
32056.1
32210
32755.1
34401.4
37688.3
40834.7
41947.8
42035.4
42041.7
42048.5
42067.4
42099.5
42141.4
42183.5
42217.1
42260.7
42449.8
43445.2
46993.5
54925.2
65815.9
77416.9
85001.4
90043.1
93604
94061.1
93735
93778.6
93555.1
92707.9
92200.6
92015.4
91691.3
91342.5
91238.9
91213.2
91091
90843.8
90643.5
90506.6
90357.6
90141.3
89874.1
89638
89412.9
89133.3
88743.7
88323.7
87978.5
87731.5
87426.8
87034.9
86766.5
86546.5
86350.6
86009.5
32000
32000
32000
32000
32000
32000
32000
32000.1
32000.3
32001
32003.9
32014.8
32056.1
32210
32755.1
34401.4
37688.3
40834.7
41947.8
42035.4
42041.7
42048.5
42067.5
42099.3
42142.1
42183.7
42219.1
42245.1
42257.9
42270.9
42334.3
42731.7
44403.3
48952.2
57251.4
67380.5
77661.2
83969.1
88422
91887.6
92739.2
92735.5
92479.2
92599.1
91962.1
91138.7
90788.9
90650.7
90349.1
89966.2
89832.5
89808.4
89729.4
89551.8
89380.8
89253.5
89101.5
88904.7
88638.4
88344.2
88071.3
87793
87404.6
86878.5
86547.7
86244.5
85944.2
85539.7
32000
32000
32000
32000
32000
32000
32000
32000.1
32000.3
32001
32003.9
32014.8
32056.1
32210
32755.1
34401.4
37688.3
40834.7
41947.8
42035.4
42041.7
42048.5
42067.5
42099.3
42142.2
42183.7
42219.4
42245.2
42257.2
42265.4
42269.4
42264.3
42276.5
42379.3
42944.7
44902.6
49654.6
57387.9
66630.1
75666.1
81964.5
86354.5
89624.6
91416
91549.4
91245.3
91171.6
91268
90608.7
89772.1
89432.6
89331.5
89083.6
88721.8
88545
88511.8
88435.1
88289.8
88119.2
87924
87727
87541.1
87300.4
86963.6
86639
86357.5
85888.9
85415.9
32000
32000
32000
32000
32000
32000
32000
32000.1
32000.3
32001
32003.9
32014.8
32056.1
32210
32755.1
34401.4
37688.3
40834.7
41947.8
42035.4
42041.7
42048.5
42067.5
42099.3
42142.2
42183.7
42219.4
42245.2
42257.2
42265.4
42268.9
42265.5
42258.8
42249.5
42238.2
42251.6
42375.1
42949.2
44744.1
48859.1
55564.4
63916.5
72311.1
78982.6
83383.5
86733.1
89289.1
90197.6
90228.3
89859.9
89839.9
89999.2
89480.3
88678.7
88180.7
88041.6
87807.8
87465.9
87198.6
87096.6
86992.5
86868.1
86750.6
86569.1
86324.8
86151.3
85853.6
85502.3
32000
32000
32000
32000
32000
32000
32000
32000.1
32000.3
32001
32003.9
32014.8
32056.1
32210
32755.1
34401.4
37688.3
40834.7
41947.8
42035.4
42041.7
42048.5
42067.5
42099.3
42142.2
42183.7
42219.4
42245.2
42257.2
42265.4
42268.8
42265.8
42258.9
42249.3
42237.9
42225.5
42211.9
42201.8
42209.9
42303.7
42742.3
44093.9
47190.7
52503.7
59618.8
67268.8
74281.7
79435.6
83045.8
85854.8
88074.5
88895.7
88939.9
88731.6
88506.7
88658.4
88313.8
87489.9
86846.6
86578.5
86368.3
86062.2
85789.4
85670.1
85545.6
85411.8
85352.1
85044
32000
32000
32000
32000
32000
32000
32000
32000.1
32000.3
32001
32003.9
32014.8
32056.1
32210
32755.1
34401.4
37688.3
40834.7
41947.8
42035.4
42041.7
42048.5
42067.5
42099.3
42142.2
42183.7
42219.4
42245.2
42257.2
42265.4
42268.8
42265.8
42258.9
42249.4
42237.9
42225.4
42212.3
42199.5
42185.1
42170.2
42159
42166.2
42229.7
42490.9
43298.9
45227.2
48863
54266.5
60918.5
67687.7
73786.3
78246
81559.5
84231.9
86337.2
87539
87565.6
87474.8
87081.5
87094.9
86966.6
86210.9
85444.8
85041.9
84809
84480.2
84365.4
84016.8
32000
32000
32000
32000
32000
32000
32000
32000.1
32000.3
32001
32003.9
32014.8
32056.1
32210
32755.1
34401.4
37688.3
40834.7
41947.8
42035.4
42041.7
42048.5
42067.5
42099.3
42142.2
42183.7
42219.4
42245.2
42257.2
42265.4
42268.8
42265.8
42258.9
42249.4
42237.9
42225.4
42212.3
42199.5
42185
42170
42157.7
42151.6
42150.3
42152.2
42156.5
42183.9
42294.3
42646.9
43584.1
45574.7
49044.6
53973.6
59891.9
66002
71602.7
76036.7
79317.7
81974.3
84139.9
85761.5
86024.3
85999.7
85585.5
85326
85282.8
84627.9
83939.8
83392.4
32000
32000
32000
32000
32000
32000
32000
32000.1
32000.3
32001
32003.9
32014.8
32056.1
32210
32755.1
34401.4
37688.3
40834.7
41947.8
42035.4
42041.7
42048.5
42067.5
42099.3
42142.2
42183.7
42219.4
42245.2
42257.2
42265.4
42268.8
42265.8
42258.9
42249.4
42237.9
42225.4
42212.3
42199.5
42185
42170
42157.7
42151.6
42150.5
42151.2
42150.7
42150.5
42149
42143.8
42145.8
42176.1
42295.3
42639.6
43473.3
45158.3
48049
52218.8
57356.6
62856.7
68224.3
72834.4
76315.4
79285.8
81509
83723.8
84253.9
84314.2
84084.7
83685.8
32000
32000
32000
32000
32000
32000
32000
32000.1
32000.3
32001
32003.9
32014.8
32056.1
32210
32755.1
34401.4
37688.3
40834.7
41947.8
42035.4
42041.7
42048.5
42067.5
42099.3
42142.2
42183.7
42219.4
42245.2
42257.2
42265.4
42268.8
42265.8
42258.9
42249.4
42237.9
42225.4
42212.3
42199.5
42185
42170
42157.7
42151.6
42150.5
42151.2
42150.7
42150.5
42148.8
42143.2
42135.5
42133.6
42137.6
42145.2
42159.9
42196.8
42299.3
42561.2
43154.4
44359
46476.8
49805.8
54049.5
59087.5
64133.1
69384.4
73106.4
76273.6
78903.7
81021
32000
32000
32000
32000
32000
32000
32000
32000.1
32000.3
32001
32003.9
32014.8
32056.1
32210
32755.1
34401.4
37688.3
40834.7
41947.8
42035.4
42041.7
42048.5
42067.5
42099.3
42142.2
42183.7
42219.4
42245.2
42257.2
42265.4
42268.8
42265.8
42258.9
42249.4
42237.9
42225.4
42212.3
42199.5
42185
42170
42157.7
42151.6
42150.5
42151.2
42150.7
42150.5
42148.8
42143.2
42135.5
42133.6
42137.4
42143.7
42152.3
42164
42181.1
42201.5
42213.5
42230.5
42279.8
42421.5
42768.7
43539.9
45016
47530.7
51262.7
55472.9
61501.4
64245
32000
32000
32000
32000
32000
32000
32000
32000.1
32000.3
32001
32003.9
32014.8
32056.1
32210
32755.1
34401.4
37688.3
40834.7
41947.8
42035.4
42041.7
42048.5
42067.5
42099.3
42142.2
42183.7
42219.4
42245.2
42257.2
42265.4
42268.8
42265.8
42258.9
42249.4
42237.9
42225.4
42212.3
42199.5
42185
42170
42157.7
42151.6
42150.5
42151.2
42150.7
42150.5
42148.8
42143.2
42135.5
42133.6
42137.4
42143.7
42152.3
42163.9
42181
42201.4
42208.4
42210
42210.3
42209
42204.7
42206
42224.3
42295.4
42512.7
42973.9
44678.9
44569.6
32000
32000
32000
32000
32000
32000
32000
32000.1
32000.3
32001
32003.9
32014.8
32056.1
32210
32755.1
34401.4
37688.3
40834.7
41947.8
42035.4
42041.7
42048.5
42067.5
42099.3
42142.2
42183.7
42219.4
42245.2
42257.2
42265.4
42268.8
42265.8
42258.9
42249.4
42237.9
42225.4
42212.3
42199.5
42185
42170
42157.7
42151.6
42150.5
42151.2
42150.7
42150.5
42148.8
42143.2
42135.5
42133.6
42137.4
42143.7
42152.3
42163.9
42181
42201.4
42208.4
42209.9
42210.2
42208.4
42203.7
42196.5
42189
42182.6
42177.8
42174.7
42205.8
42086.4
32000
32000
32000
32000
32000
32000
32000
32000.1
32000.3
32001
32003.9
32014.8
32056.1
32210
32755.1
34401.4
37688.3
40834.7
41947.8
42035.4
42041.7
42048.5
42067.5
42099.3
42142.2
42183.7
42219.4
42245.2
42257.2
42265.4
42268.8
42265.8
42258.9
42249.4
42237.9
42225.4
42212.3
42199.5
42185
42170
42157.7
42151.6
42150.5
42151.2
42150.7
42150.5
42148.8
42143.2
42135.5
42133.6
42137.4
42143.7
42152.3
42163.9
42181
42201.4
42208.4
42209.9
42210.2
42208.4
42203.7
42196.5
42188.9
42182.7
42176.4
42170.7
42167.3
42155.6
32000
32000
32000
32000
32000
32000
32000
32000.1
32000.3
32001
32003.9
32014.8
32056.1
32210
32755.1
34401.4
37688.3
40834.7
41947.8
42035.4
42041.7
42048.5
42067.5
42099.3
42142.2
42183.7
42219.4
42245.2
42257.2
42265.4
42268.8
42265.8
42258.9
42249.4
42237.9
42225.4
42212.3
42199.5
42185
42170
42157.7
42151.6
42150.5
42151.2
42150.7
42150.5
42148.8
42143.2
42135.5
42133.6
42137.4
42143.7
42152.3
42163.9
42181
42201.4
42208.4
42209.9
42210.2
42208.4
42203.7
42196.5
42188.9
42182.7
42176.4
42170.8
42166.7
42164.1
32000
32000
32000
32000
32000
32000
32000
32000.1
32000.3
32001
32003.9
32014.8
32056.1
32210
32755.1
34401.4
37688.3
40834.7
41947.8
42035.4
42041.7
42048.5
42067.5
42099.3
42142.2
42183.7
42219.4
42245.2
42257.2
42265.4
42268.8
42265.8
42258.9
42249.4
42237.9
42225.4
42212.3
42199.5
42185
42170
42157.7
42151.6
42150.5
42151.2
42150.7
42150.5
42148.8
42143.2
42135.5
42133.6
42137.4
42143.7
42152.3
42163.9
42181
42201.4
42208.4
42209.9
42210.2
42208.4
42203.7
42196.5
42188.9
42182.7
42176.4
42170.8
42166.6
42164.4
32000
32000
32000
32000
32000
32000
32000
32000.1
32000.3
32001
32003.9
32014.8
32056.1
32210
32755.1
34401.4
37688.3
40834.7
41947.8
42035.4
42041.7
42048.5
42067.5
42099.3
42142.2
42183.7
42219.4
42245.2
42257.2
42265.4
42268.8
42265.8
42258.9
42249.4
42237.9
42225.4
42212.3
42199.5
42185
42170
42157.7
42151.6
42150.5
42151.2
42150.7
42150.5
42148.8
42143.2
42135.5
42133.6
42137.4
42143.7
42152.3
42163.9
42181
42201.4
42208.4
42209.9
42210.2
42208.4
42203.7
42196.5
42188.9
42182.7
42176.4
42170.8
42166.6
42164.3
32000
32000
32000
32000
32000
32000
32000
32000.1
32000.3
32001
32003.9
32014.8
32056.1
32210
32755.1
34401.4
37688.3
40834.7
41947.8
42035.4
42041.7
42048.5
42067.5
42099.3
42142.2
42183.7
42219.4
42245.2
42257.2
42265.4
42268.8
42265.8
42258.9
42249.4
42237.9
42225.4
42212.3
42199.5
42185
42170
42157.7
42151.6
42150.5
42151.2
42150.7
42150.5
42148.8
42143.2
42135.5
42133.6
42137.4
42143.7
42152.3
42163.9
42181
42201.4
42208.4
42209.9
42210.2
42208.4
42203.7
42196.5
42188.9
42182.7
42176.4
42170.8
42166.7
42164.2
32000
32000
32000
32000
32000
32000
32000
32000.1
32000.3
32001
32003.9
32014.8
32056.1
32210
32755.1
34401.4
37688.3
40834.7
41947.8
42035.4