/*--------------------------------*- C++ -*----------------------------------*\
| =========                 |                                                 |
| \\      /  F ield         | OpenFOAM: The Open Source CFD Toolbox           |
|  \\    /   O peration     | Version:  2306                                  |
|   \\  /    A nd           | Website:  www.openfoam.com                      |
|    \\/     M anipulation  |                                                 |
\*---------------------------------------------------------------------------*/
FoamFile
{
    version     2.0;
    format      ascii;
    arch        "LSB;label=32;scalar=64";
    class       volScalarField;
    location    "2e-05";
    object      rho;
}
// * * * * * * * * * * * * * * * * * * * * * * * * * * * * * * * * * * * * * //

dimensions      [1 -3 0 0 0 0 0];

internalField   nonuniform List<scalar> 
9032
(
1.47917
1.46695
1.45485
1.44361
1.43386
1.42554
1.41778
1.40958
1.4009
1.39165
1.38235
1.37388
1.36614
1.35878
1.35565
1.35565
1.3576
1.36151
1.36668
1.37184
1.3754
1.37684
1.37692
1.3754
1.37165
1.36607
1.36001
1.35475
1.35083
1.34835
1.34699
1.346
1.34437
1.34158
1.33789
1.33393
1.33025
1.32718
1.32495
1.32354
1.32243
1.32079
1.31826
1.31501
1.31137
1.30769
1.30441
1.30181
1.30014
1.29943
1.29925
1.29894
1.29793
1.29601
1.2936
1.29114
1.28872
1.2866
1.28491
1.2834
1.2819
1.28035
1.27849
1.27663
1.27471
1.27332
1.27194
1.27168
1.47611
1.46436
1.45288
1.44203
1.43261
1.42469
1.4172
1.40909
1.40038
1.39122
1.38189
1.37322
1.36551
1.35811
1.35472
1.35451
1.35633
1.3601
1.36487
1.36962
1.37323
1.37469
1.37437
1.37255
1.36889
1.36375
1.35822
1.35333
1.34952
1.34679
1.34489
1.34332
1.34134
1.33857
1.33521
1.33173
1.32857
1.32593
1.32388
1.32216
1.32038
1.3182
1.31547
1.31234
1.30905
1.30584
1.30303
1.30077
1.2992
1.29824
1.29761
1.29692
1.29581
1.29401
1.29184
1.28951
1.28718
1.2851
1.2833
1.2816
1.28007
1.27848
1.2767
1.27482
1.27294
1.27149
1.26994
1.27015
1.47475
1.46332
1.45245
1.44276
1.4345
1.42749
1.42071
1.41301
1.40416
1.39476
1.38522
1.37617
1.36839
1.36095
1.35627
1.3555
1.35672
1.35994
1.36483
1.37036
1.37514
1.37803
1.37883
1.37815
1.37583
1.37155
1.36596
1.36063
1.35626
1.35288
1.35033
1.34826
1.34611
1.34344
1.34027
1.33705
1.33422
1.33192
1.32996
1.32795
1.32548
1.32254
1.3193
1.31608
1.31305
1.31033
1.30805
1.30612
1.30456
1.30326
1.30212
1.30108
1.29997
1.29843
1.29659
1.29451
1.29227
1.29015
1.28823
1.2864
1.28489
1.28346
1.28195
1.2803
1.27834
1.2767
1.27455
1.27501
1.47468
1.46462
1.45491
1.4462
1.43879
1.43255
1.42645
1.41952
1.41129
1.40218
1.39291
1.384
1.37607
1.36879
1.36253
1.36048
1.36055
1.36242
1.36618
1.37108
1.37601
1.37983
1.38168
1.38172
1.38062
1.37765
1.37243
1.36695
1.36225
1.35838
1.35532
1.35292
1.35079
1.34837
1.34541
1.3423
1.33955
1.33722
1.3351
1.3328
1.33005
1.32689
1.3235
1.32021
1.31725
1.31476
1.31279
1.31108
1.30957
1.30812
1.30672
1.30542
1.30421
1.30274
1.3011
1.29917
1.29704
1.2949
1.2929
1.29101
1.28953
1.28825
1.28701
1.28558
1.28368
1.28192
1.27944
1.27988
1.47552
1.46663
1.45823
1.45065
1.44391
1.43786
1.43186
1.42514
1.41742
1.40905
1.40047
1.39225
1.38457
1.37751
1.37091
1.36698
1.36562
1.36628
1.36877
1.37284
1.3777
1.38222
1.38534
1.38629
1.38603
1.38457
1.38012
1.37454
1.36949
1.36518
1.36175
1.35924
1.35741
1.35562
1.35314
1.35008
1.34702
1.34411
1.34135
1.33864
1.33589
1.3331
1.33019
1.32721
1.32432
1.32171
1.31956
1.31774
1.31624
1.31493
1.3137
1.31246
1.31113
1.30945
1.30763
1.30558
1.30347
1.30141
1.29952
1.29777
1.29641
1.2952
1.2941
1.29284
1.29115
1.28953
1.28716
1.28766
1.47677
1.46858
1.46077
1.45366
1.44718
1.44104
1.43486
1.42804
1.42084
1.41346
1.40593
1.3987
1.39162
1.38475
1.37828
1.37288
1.37001
1.36937
1.37055
1.37364
1.37809
1.3828
1.38637
1.38803
1.3882
1.38784
1.38471
1.37939
1.37422
1.36969
1.36602
1.36342
1.36181
1.36067
1.35888
1.35602
1.35272
1.34931
1.34602
1.34295
1.34021
1.33777
1.33539
1.33283
1.33006
1.32733
1.32499
1.32296
1.32143
1.32027
1.31923
1.31802
1.31652
1.31461
1.31268
1.31063
1.30865
1.30664
1.30475
1.30298
1.30152
1.30032
1.29936
1.29842
1.2971
1.29575
1.29356
1.2937
1.4779
1.47001
1.46248
1.4555
1.44899
1.44251
1.43602
1.42925
1.42225
1.41526
1.40869
1.40239
1.39596
1.38947
1.38311
1.37721
1.37321
1.37141
1.37181
1.37415
1.37795
1.38243
1.38653
1.38882
1.38932
1.38931
1.3875
1.38286
1.37782
1.37324
1.36948
1.36683
1.36523
1.3643
1.36298
1.36026
1.35661
1.35265
1.34893
1.34571
1.34312
1.34107
1.33923
1.33716
1.33462
1.33181
1.32921
1.32694
1.32539
1.32451
1.32384
1.32285
1.32132
1.31925
1.31709
1.31476
1.31261
1.31051
1.30873
1.3072
1.30598
1.30501
1.30403
1.30301
1.30166
1.30027
1.29836
1.29797
1.47764
1.46973
1.4622
1.45539
1.44903
1.44245
1.43573
1.42888
1.42193
1.41535
1.40938
1.40364
1.3977
1.39161
1.38543
1.37948
1.37482
1.37222
1.37201
1.37395
1.37745
1.382
1.38654
1.38946
1.39025
1.39015
1.38902
1.38532
1.38067
1.37618
1.37223
1.36909
1.36683
1.36531
1.36387
1.36149
1.35809
1.3542
1.35068
1.34773
1.34528
1.34316
1.34121
1.33922
1.33684
1.33411
1.33158
1.32946
1.32819
1.32761
1.32717
1.3262
1.3244
1.32193
1.31939
1.31687
1.31473
1.31294
1.31164
1.31043
1.30916
1.30785
1.30635
1.30496
1.30344
1.30221
1.30096
1.30048
1.47614
1.46822
1.46096
1.45452
1.44825
1.44172
1.43506
1.42824
1.42124
1.41476
1.40914
1.40375
1.39825
1.39224
1.38606
1.37995
1.37495
1.37209
1.37175
1.3737
1.37721
1.38191
1.3867
1.39
1.39093
1.3907
1.38969
1.38675
1.38252
1.37799
1.37366
1.36985
1.3669
1.36488
1.3634
1.36184
1.35957
1.35642
1.35318
1.35005
1.34702
1.3442
1.34174
1.33962
1.33755
1.33537
1.33342
1.33181
1.3308
1.33012
1.32926
1.32775
1.32554
1.3228
1.32034
1.31809
1.31634
1.31484
1.31359
1.31218
1.31049
1.30879
1.307
1.30573
1.30447
1.30361
1.30286
1.30223
1.47492
1.46685
1.45971
1.45347
1.44738
1.44104
1.43452
1.42778
1.42086
1.41465
1.40906
1.40366
1.39813
1.39205
1.38582
1.37953
1.37431
1.37141
1.37118
1.37327
1.37681
1.38149
1.38646
1.39005
1.39108
1.39078
1.38955
1.38686
1.38285
1.37835
1.37391
1.37007
1.36711
1.36505
1.36365
1.36239
1.36069
1.3579
1.35452
1.3509
1.34731
1.3441
1.34145
1.33948
1.33793
1.33649
1.33518
1.33383
1.33261
1.33138
1.32982
1.32788
1.32574
1.32334
1.32125
1.31917
1.31736
1.31559
1.31399
1.31236
1.31065
1.3092
1.30779
1.30695
1.30591
1.305
1.30399
1.30326
1.4744
1.46555
1.4585
1.45258
1.44698
1.44066
1.43404
1.4272
1.42039
1.41457
1.40921
1.40389
1.39811
1.39195
1.38546
1.37882
1.37351
1.37072
1.37051
1.37255
1.37584
1.38042
1.38554
1.3893
1.39063
1.39045
1.38913
1.38638
1.38255
1.37839
1.37435
1.37095
1.36831
1.36625
1.36455
1.36278
1.3607
1.35776
1.35434
1.35078
1.34733
1.34431
1.34185
1.34005
1.33873
1.33757
1.33642
1.33492
1.3333
1.33164
1.32994
1.32821
1.32631
1.32417
1.32199
1.31968
1.3175
1.3154
1.31371
1.31233
1.31122
1.31031
1.30908
1.30808
1.30683
1.30555
1.30388
1.30289
1.47417
1.46478
1.45784
1.45223
1.44714
1.44076
1.43401
1.42697
1.42009
1.41456
1.40942
1.40413
1.39841
1.39226
1.38546
1.37848
1.3732
1.37038
1.36999
1.37168
1.37453
1.37902
1.38423
1.38819
1.38998
1.39021
1.38918
1.38636
1.38257
1.37861
1.37493
1.37193
1.3696
1.36751
1.36535
1.36295
1.36029
1.35712
1.35387
1.35064
1.34763
1.34509
1.34292
1.34115
1.33961
1.33822
1.33686
1.33525
1.33378
1.33238
1.33096
1.32933
1.3272
1.32479
1.32219
1.31957
1.31714
1.31494
1.31369
1.31304
1.31244
1.31149
1.30986
1.30813
1.30625
1.30454
1.3027
1.30261
1.47244
1.46386
1.45723
1.45201
1.4474
1.4412
1.43474
1.42761
1.42004
1.41417
1.40898
1.40386
1.39853
1.3924
1.38563
1.37861
1.37354
1.37049
1.36983
1.37115
1.37374
1.37824
1.38348
1.3875
1.38949
1.3901
1.3897
1.38696
1.383
1.37896
1.37535
1.37247
1.37022
1.3681
1.36565
1.36282
1.35973
1.35643
1.35347
1.35078
1.34833
1.34615
1.34402
1.34201
1.34011
1.3385
1.33713
1.33578
1.33481
1.33369
1.33227
1.33026
1.32769
1.32489
1.32192
1.31913
1.31683
1.31518
1.31456
1.3143
1.31346
1.31184
1.30961
1.30724
1.30492
1.30316
1.30164
1.30191
1.46951
1.46261
1.4568
1.45188
1.44705
1.44117
1.43517
1.42817
1.42013
1.41362
1.40819
1.4032
1.39834
1.39247
1.38606
1.37937
1.37445
1.37114
1.37016
1.37107
1.37355
1.3782
1.38356
1.3876
1.38942
1.3901
1.39045
1.38795
1.38364
1.37933
1.37549
1.37237
1.36997
1.36785
1.36549
1.3628
1.35984
1.35673
1.35403
1.35154
1.34917
1.34689
1.34457
1.34235
1.34027
1.3387
1.33759
1.33665
1.33589
1.33463
1.33283
1.3303
1.32743
1.32452
1.32171
1.3193
1.31741
1.31624
1.31567
1.31511
1.31372
1.31157
1.30893
1.30639
1.30404
1.30246
1.30125
1.30128
1.46996
1.46342
1.45745
1.45179
1.44568
1.44008
1.43447
1.42786
1.42028
1.41349
1.40789
1.40295
1.39854
1.39309
1.38705
1.38064
1.37555
1.37205
1.37075
1.37145
1.37407
1.37899
1.38457
1.38845
1.38971
1.38995
1.39059
1.38842
1.38386
1.37931
1.37525
1.37194
1.36946
1.36747
1.36548
1.36322
1.36049
1.35751
1.35477
1.35208
1.3495
1.34702
1.34463
1.34249
1.34064
1.33942
1.3384
1.33742
1.33624
1.3344
1.33216
1.32951
1.3268
1.32418
1.32181
1.31986
1.31828
1.31718
1.31624
1.31515
1.31328
1.31104
1.30854
1.30628
1.30409
1.30259
1.30133
1.3005
1.47213
1.46533
1.45855
1.45114
1.44412
1.43814
1.43269
1.42676
1.42042
1.41418
1.40879
1.4041
1.39981
1.39444
1.38852
1.38223
1.37685
1.37325
1.37173
1.37207
1.3746
1.37986
1.38578
1.38956
1.39037
1.39004
1.39022
1.38832
1.38386
1.37932
1.37528
1.37202
1.36953
1.36754
1.36568
1.36359
1.36092
1.35795
1.35503
1.35212
1.34935
1.34688
1.34483
1.34316
1.34175
1.34063
1.33918
1.33761
1.3357
1.33331
1.33087
1.32842
1.32604
1.32386
1.32197
1.32038
1.31885
1.31755
1.31604
1.31445
1.31236
1.31046
1.30834
1.30647
1.30455
1.30301
1.30148
1.29962
1.47507
1.46584
1.45872
1.44963
1.44297
1.43692
1.4313
1.42649
1.42079
1.41547
1.41076
1.40629
1.40124
1.39552
1.3896
1.38346
1.37799
1.37443
1.37278
1.37272
1.37514
1.38055
1.38658
1.3903
1.39098
1.39024
1.38959
1.38777
1.38379
1.37951
1.37571
1.37267
1.37018
1.36802
1.36593
1.36367
1.36085
1.35777
1.35466
1.35163
1.34901
1.34702
1.34564
1.34441
1.34313
1.34162
1.33958
1.33746
1.33493
1.33229
1.32981
1.32748
1.32531
1.32349
1.32192
1.32052
1.31889
1.31733
1.31524
1.31332
1.31122
1.30963
1.30783
1.30638
1.30477
1.30311
1.30138
1.29876
1.44705
1.4657
1.45756
1.44984
1.44314
1.43677
1.43124
1.42579
1.42134
1.41747
1.41323
1.40796
1.40178
1.39552
1.38969
1.38388
1.37889
1.37573
1.37422
1.3738
1.37579
1.38104
1.38709
1.391
1.39183
1.39083
1.3894
1.38739
1.38392
1.37996
1.37641
1.3735
1.37087
1.36837
1.36582
1.36316
1.36007
1.35686
1.35378
1.35102
1.34883
1.34741
1.34655
1.34547
1.34404
1.34204
1.33955
1.33712
1.33439
1.33171
1.32921
1.32686
1.32472
1.32305
1.32159
1.32027
1.31856
1.31675
1.31428
1.31212
1.30994
1.30838
1.30671
1.30553
1.30417
1.30249
1.30074
1.29807
1.15962
1.43623
1.4554
1.4469
1.44078
1.43536
1.43019
1.42532
1.42237
1.41918
1.41451
1.40834
1.40083
1.39402
1.38878
1.38346
1.37935
1.37707
1.37606
1.37524
1.37674
1.3817
1.38762
1.39163
1.39258
1.39138
1.38939
1.38715
1.38401
1.38032
1.37693
1.374
1.37113
1.36821
1.3652
1.36216
1.35895
1.35581
1.353
1.35055
1.34879
1.34778
1.34707
1.34582
1.34401
1.34154
1.33884
1.33637
1.33376
1.33128
1.32889
1.32652
1.32431
1.32257
1.32103
1.31977
1.31805
1.31619
1.31352
1.3111
1.30875
1.30685
1.30505
1.30388
1.3027
1.30108
1.29952
1.29717
0.726509
1.24141
1.44029
1.44469
1.44175
1.43569
1.42934
1.42585
1.42273
1.41938
1.41429
1.40745
1.39914
1.39191
1.38702
1.38244
1.37902
1.3777
1.37712
1.37621
1.3776
1.38226
1.388
1.39203
1.39296
1.39157
1.38928
1.38683
1.38372
1.38016
1.37686
1.37384
1.37075
1.36752
1.36428
1.36115
1.358
1.35508
1.35264
1.35055
1.34907
1.34808
1.34702
1.34533
1.3431
1.34027
1.33756
1.33517
1.33269
1.33048
1.32829
1.32601
1.32379
1.32197
1.32032
1.31902
1.31734
1.31553
1.31294
1.31044
1.30799
1.3056
1.30347
1.30206
1.30087
1.29935
1.29798
1.29578
0.62174
0.789859
1.26522
1.4515
1.4488
1.43729
1.43071
1.42602
1.42188
1.41826
1.41277
1.40648
1.39894
1.39092
1.38553
1.38095
1.37773
1.37675
1.37681
1.37638
1.37821
1.38285
1.38844
1.39236
1.39331
1.39176
1.38916
1.38642
1.38328
1.37982
1.37652
1.37335
1.37
1.36662
1.36336
1.36038
1.35752
1.35506
1.35309
1.35126
1.34969
1.34832
1.34668
1.34457
1.34202
1.33899
1.33625
1.33368
1.33105
1.32893
1.32689
1.32488
1.32294
1.32121
1.31943
1.31793
1.31624
1.31447
1.31219
1.3098
1.30745
1.30482
1.30248
1.30074
1.29934
1.29774
1.29635
1.29414
0.620073
0.624548
0.813596
1.31645
1.43242
1.43497
1.4333
1.42697
1.41972
1.41543
1.41138
1.40648
1.40035
1.39249
1.38552
1.38021
1.37635
1.37519
1.37576
1.37671
1.37968
1.38439
1.38941
1.39296
1.39407
1.39223
1.38901
1.38572
1.38249
1.37918
1.37595
1.37265
1.36913
1.36569
1.36266
1.36007
1.35779
1.35585
1.35416
1.35232
1.35046
1.34854
1.34629
1.34397
1.34125
1.33807
1.33523
1.33219
1.32923
1.32696
1.32508
1.32355
1.32205
1.3203
1.31823
1.31637
1.31457
1.31273
1.31077
1.30868
1.30667
1.30421
1.30197
1.30009
1.2984
1.29656
1.29492
1.29266
0.62007
0.62008
0.626491
0.871511
1.31052
1.43747
1.43365
1.42386
1.41668
1.41345
1.41049
1.40666
1.4019
1.39559
1.38759
1.381
1.37637
1.3744
1.3749
1.378
1.38238
1.38694
1.39122
1.39469
1.39566
1.39292
1.38893
1.38505
1.38161
1.3784
1.37522
1.37186
1.36833
1.36502
1.36221
1.35997
1.35822
1.35677
1.35512
1.35311
1.35078
1.34823
1.34558
1.3432
1.34048
1.33736
1.33446
1.33113
1.32804
1.32565
1.32389
1.32258
1.3213
1.31928
1.31683
1.31457
1.31261
1.31059
1.30878
1.30696
1.30527
1.30306
1.30106
1.2993
1.29751
1.29556
1.29371
1.29155
0.62007
0.62007
0.620089
0.632404
0.890283
1.32657
1.4252
1.41918
1.41488
1.41133
1.40818
1.40603
1.40187
1.39617
1.38892
1.38159
1.3768
1.37413
1.3752
1.38037
1.38581
1.39053
1.39441
1.39773
1.39709
1.3931
1.38858
1.38434
1.38063
1.37742
1.37446
1.37137
1.36805
1.36492
1.36227
1.36014
1.35853
1.35719
1.35531
1.35295
1.35008
1.34698
1.34408
1.34164
1.33895
1.33613
1.33334
1.33022
1.32738
1.32518
1.32351
1.32205
1.32066
1.31829
1.31562
1.31306
1.31082
1.30835
1.30635
1.30468
1.30318
1.30119
1.29943
1.29782
1.29595
1.29404
1.29223
1.29034
0.62007
0.62007
0.62007
0.620118
0.635889
0.88897
1.31804
1.40937
1.41577
1.40979
1.406
1.40407
1.40029
1.39476
1.38832
1.38161
1.37705
1.37462
1.37648
1.38224
1.38868
1.39364
1.39738
1.39981
1.39737
1.39279
1.38775
1.38348
1.37972
1.3766
1.37404
1.37143
1.36841
1.36546
1.36281
1.36039
1.35841
1.3568
1.35468
1.35207
1.34859
1.34503
1.34185
1.33914
1.33641
1.33394
1.33151
1.32898
1.32672
1.32491
1.32321
1.32141
1.31968
1.31722
1.31462
1.31211
1.3097
1.30688
1.30457
1.30282
1.30109
1.29906
1.29734
1.29568
1.29368
1.29181
1.29017
1.28831
0.62007
0.62007
0.62007
0.62007
0.620134
0.634044
0.886243
1.28692
1.41671
1.41043
1.40558
1.40162
1.3974
1.39252
1.38655
1.3809
1.37732
1.37556
1.37812
1.38441
1.39165
1.39631
1.39905
1.4001
1.39691
1.39195
1.38686
1.38269
1.37909
1.37611
1.37389
1.37185
1.36925
1.36629
1.36336
1.36054
1.3581
1.356
1.35362
1.35081
1.34704
1.34326
1.33978
1.33657
1.33367
1.33133
1.32933
1.32731
1.32544
1.32385
1.322
1.31999
1.31801
1.31573
1.31333
1.31107
1.30866
1.30589
1.30361
1.30178
1.29958
1.29736
1.29557
1.29361
1.29131
1.28929
1.28766
1.28547
0.62007
0.62007
0.62007
0.62007
0.62007
0.620124
0.634489
0.848818
1.28047
1.39276
1.40276
1.39941
1.39475
1.39099
1.38529
1.38114
1.3796
1.38052
1.38355
1.38914
1.39564
1.39856
1.39933
1.3992
1.3961
1.3915
1.38676
1.38256
1.37908
1.37609
1.37393
1.37217
1.36982
1.36677
1.36359
1.36048
1.35766
1.35497
1.35227
1.34931
1.34568
1.34195
1.33832
1.33485
1.33182
1.32946
1.32761
1.32562
1.32367
1.32187
1.31974
1.31762
1.3156
1.31353
1.31138
1.30943
1.30717
1.30465
1.30267
1.30097
1.29859
1.29632
1.29452
1.2922
1.28962
1.28733
1.28536
1.28251
0.62007
0.62007
0.62007
0.62007
0.62007
0.62007
0.620123
0.629949
0.828371
1.22946
1.38611
1.40572
1.40007
1.39213
1.38767
1.38568
1.38719
1.38855
1.38922
1.39409
1.40085
1.40225
1.40067
1.39858
1.39613
1.39215
1.38791
1.38362
1.37981
1.37646
1.37376
1.37161
1.36924
1.36592
1.3625
1.35922
1.35613
1.35287
1.34967
1.34674
1.3438
1.34085
1.33773
1.33461
1.33169
1.32914
1.32694
1.3245
1.32214
1.31977
1.31717
1.31485
1.31282
1.31089
1.30895
1.3072
1.30503
1.3027
1.30098
1.29934
1.29697
1.29497
1.29347
1.29111
1.28867
1.28627
1.28382
1.28051
0.62007
0.62007
0.62007
0.62007
0.62007
0.62007
0.62007
0.620102
0.627419
0.781953
1.15301
1.38182
1.4003
1.39347
1.38863
1.38857
1.38863
1.38897
1.39107
1.39857
1.40675
1.40705
1.40365
1.39993
1.39662
1.39297
1.38897
1.38459
1.38017
1.37633
1.37278
1.36985
1.36713
1.36367
1.36006
1.3566
1.35314
1.34967
1.34646
1.34356
1.34094
1.3386
1.33612
1.33356
1.33104
1.32873
1.32654
1.32392
1.32136
1.31856
1.3156
1.313
1.31076
1.3086
1.3066
1.30476
1.30255
1.30025
1.2986
1.29675
1.29429
1.29267
1.29132
1.289
1.28693
1.28482
1.28232
1.27912
0.62007
0.62007
0.62007
0.62007
0.62007
0.62007
0.62007
0.620071
0.62009
0.624026
0.724428
1.09927
1.33321
1.37902
1.38949
1.39148
1.39157
1.39203
1.39459
1.40252
1.41056
1.41028
1.40557
1.3999
1.39554
1.3918
1.38813
1.38405
1.37961
1.37535
1.37135
1.36777
1.36449
1.36099
1.3573
1.35365
1.34989
1.34633
1.34305
1.3401
1.33773
1.33578
1.33377
1.33153
1.32914
1.32697
1.32479
1.32233
1.32001
1.31749
1.31482
1.31235
1.31003
1.3074
1.30511
1.30296
1.30057
1.29812
1.29622
1.29374
1.29109
1.28961
1.28798
1.28574
1.28398
1.28209
1.27979
1.27695
0.62007
0.62007
0.62007
0.62007
0.62007
0.62007
0.620071
0.620071
0.620074
0.620087
0.62159
0.690688
0.979787
1.31476
1.37594
1.39218
1.39938
1.40261
1.40429
1.40865
1.41259
1.41095
1.40529
1.3987
1.39369
1.38997
1.38665
1.38318
1.37914
1.3749
1.37055
1.36625
1.36233
1.35864
1.35524
1.35187
1.34839
1.34505
1.34174
1.33854
1.33588
1.33363
1.33146
1.32895
1.32625
1.32396
1.32162
1.3193
1.31726
1.31515
1.31298
1.311
1.30898
1.30642
1.3042
1.30186
1.29948
1.29704
1.29471
1.29164
1.28875
1.28684
1.28451
1.28222
1.28037
1.2782
1.2761
1.2735
0.62007
0.62007
0.62007
0.62007
0.62007
0.62007
0.620071
0.620071
0.620074
0.620084
0.62012
0.620919
0.653255
0.887955
1.21786
1.35779
1.41262
1.41696
1.41588
1.41463
1.41494
1.41134
1.40576
1.39995
1.39426
1.38925
1.38511
1.38156
1.37827
1.3743
1.36972
1.36489
1.36046
1.35649
1.35305
1.35
1.34716
1.34443
1.34167
1.33876
1.33605
1.33341
1.33071
1.32739
1.32401
1.3211
1.31816
1.31561
1.31361
1.3118
1.30996
1.30838
1.30636
1.30399
1.30201
1.29978
1.29772
1.29579
1.29334
1.29042
1.28787
1.2855
1.28258
1.27991
1.27752
1.27474
1.27251
1.2699
0.62007
0.62007
0.62007
0.62007
0.62007
0.62007
0.620071
0.620071
0.620074
0.620084
0.620123
0.620277
0.620921
0.63473
0.78655
1.08007
1.3222
1.39918
1.41976
1.41574
1.41435
1.40954
1.40445
1.39858
1.39237
1.3868
1.38205
1.37814
1.37499
1.37115
1.36629
1.36126
1.35683
1.35303
1.34971
1.34681
1.34429
1.34199
1.33963
1.33711
1.33474
1.33254
1.33019
1.32711
1.32379
1.32036
1.31668
1.31332
1.31067
1.30847
1.30663
1.30506
1.30275
1.30058
1.29857
1.2964
1.29461
1.29295
1.29056
1.28833
1.28658
1.28423
1.2817
1.27907
1.27626
1.27319
1.2707
1.26798
0.62007
0.62007
0.62007
0.62007
0.62007
0.62007
0.620071
0.620071
0.620074
0.620085
0.620122
0.620281
0.620837
0.622948
0.633207
0.706195
0.932456
1.19148
1.34357
1.39606
1.39953
1.3994
1.39785
1.39419
1.38802
1.3819
1.37602
1.37198
1.36868
1.36537
1.36102
1.35653
1.35255
1.34894
1.34553
1.34255
1.34008
1.33795
1.33574
1.3334
1.33126
1.32928
1.32711
1.3247
1.32226
1.3196
1.31645
1.31338
1.31038
1.30737
1.30493
1.30273
1.29997
1.29777
1.29537
1.29284
1.2908
1.28891
1.2866
1.28486
1.28351
1.28104
1.27906
1.27712
1.27471
1.27228
1.27006
1.26744
0.62007
0.62007
0.62007
0.62007
0.62007
0.62007
0.620071
0.620071
0.620074
0.620085
0.620123
0.620278
0.620842
0.622987
0.630374
0.653895
0.701964
0.816661
0.987934
1.19517
1.31179
1.38258
1.39006
1.38645
1.38336
1.37971
1.37309
1.3673
1.36293
1.35997
1.3574
1.35384
1.35019
1.3465
1.343
1.3397
1.3367
1.3341
1.33144
1.32892
1.32662
1.3244
1.32222
1.32028
1.31853
1.31652
1.31393
1.31142
1.309
1.30665
1.30461
1.30216
1.29925
1.29704
1.29421
1.29097
1.28835
1.28576
1.28293
1.28106
1.27917
1.27656
1.27488
1.27334
1.27137
1.26944
1.26771
1.26519
0.62007
0.62007
0.62007
0.62007
0.62007
0.62007
0.620071
0.620071
0.620074
0.620084
0.620124
0.620275
0.620848
0.622973
0.630494
0.652924
0.697882
0.73522
0.763102
0.833857
0.976944
1.16304
1.29362
1.35078
1.38229
1.38076
1.37593
1.37205
1.3673
1.36127
1.35714
1.35412
1.35079
1.34748
1.34442
1.34133
1.33823
1.3347
1.3309
1.32739
1.32401
1.32066
1.31771
1.31547
1.31381
1.31199
1.30972
1.30766
1.30553
1.30352
1.30179
1.29982
1.29762
1.2959
1.29365
1.29058
1.28804
1.28502
1.28159
1.27923
1.27616
1.27299
1.27076
1.26899
1.26702
1.265
1.2634
1.26032
0.62007
0.62007
0.62007
0.62007
0.62007
0.62007
0.620071
0.620071
0.620074
0.620084
0.620124
0.620275
0.620848
0.622971
0.630512
0.652947
0.69737
0.737311
0.750671
0.754134
0.76629
0.820616
0.959273
1.12845
1.27354
1.32984
1.35575
1.3645
1.36138
1.35828
1.35438
1.35076
1.34777
1.34452
1.34128
1.33859
1.33626
1.33353
1.33089
1.32875
1.32591
1.32209
1.3178
1.31407
1.3111
1.30822
1.30547
1.30321
1.30094
1.29886
1.29723
1.29551
1.29385
1.29245
1.29048
1.28786
1.28587
1.28359
1.28074
1.27858
1.27547
1.27221
1.26933
1.26678
1.26421
1.26114
1.25893
1.25535
0.62007
0.62007
0.62007
0.62007
0.62007
0.62007
0.620071
0.620071
0.620074
0.620084
0.620124
0.620275
0.620847
0.622975
0.630506
0.652996
0.697065
0.737827
0.751559
0.752816
0.753027
0.754167
0.764174
0.811864
0.928863
1.09586
1.2331
1.31698
1.32852
1.33903
1.3407
1.34129
1.34007
1.33767
1.33415
1.33219
1.33091
1.32855
1.32633
1.32487
1.323
1.32009
1.3174
1.3153
1.31288
1.30925
1.30507
1.30146
1.29826
1.29527
1.2929
1.29073
1.28888
1.28745
1.28537
1.28306
1.28147
1.27968
1.27737
1.27547
1.27307
1.27079
1.26893
1.26637
1.26372
1.26006
1.25666
1.2533
0.62007
0.62007
0.62007
0.62007
0.62007
0.62007
0.620071
0.620071
0.620074
0.620084
0.620124
0.620275
0.620847
0.622976
0.6305
0.653008
0.697049
0.737803
0.751665
0.752836
0.752971
0.753146
0.753528
0.754721
0.762141
0.799671
0.894617
1.04311
1.18079
1.27865
1.33234
1.32721
1.32988
1.33112
1.32773
1.32493
1.32341
1.32009
1.31817
1.31776
1.31708
1.31448
1.31264
1.31154
1.31019
1.30778
1.30512
1.30264
1.29986
1.29636
1.29255
1.28918
1.2865
1.28407
1.28099
1.27828
1.27639
1.2744
1.27225
1.27046
1.26848
1.26699
1.26573
1.26352
1.26125
1.2587
1.25558
1.25295
0.62007
0.62007
0.62007
0.62007
0.62007
0.62007
0.620071
0.620071
0.620074
0.620084
0.620124
0.620275
0.620847
0.622976
0.6305
0.653012
0.697047
0.737797
0.751661
0.752841
0.752973
0.75315
0.753485
0.754027
0.754674
0.755674
0.760551
0.784386
0.854843
0.974985
1.11497
1.21813
1.2849
1.32583
1.32856
1.32327
1.32414
1.32003
1.31465
1.31277
1.30995
1.30574
1.3045
1.30436
1.304
1.30218
1.30037
1.29885
1.29689
1.29432
1.29171
1.28945
1.28738
1.28446
1.28054
1.27699
1.27428
1.27147
1.26851
1.26597
1.26355
1.26198
1.26045
1.258
1.25595
1.25437
1.25204
1.24956
0.62007
0.62007
0.62007
0.62007
0.62007
0.62007
0.620071
0.620071
0.620074
0.620084
0.620124
0.620275
0.620847
0.622976
0.630499
0.653013
0.697047
0.737797
0.75166
0.752841
0.752973
0.753151
0.753487
0.754019
0.754681
0.75532
0.755759
0.756256
0.758511
0.770564
0.812615
0.903486
1.02436
1.14836
1.22712
1.27796
1.31322
1.31874
1.31582
1.31645
1.31427
1.30592
1.30108
1.29943
1.29629
1.29281
1.29193
1.29182
1.29075
1.28841
1.28659
1.28541
1.28411
1.28217
1.27968
1.27748
1.27539
1.27277
1.26904
1.26499
1.26171
1.25944
1.25659
1.25281
1.2503
1.24828
1.24653
1.24335
0.62007
0.62007
0.62007
0.62007
0.62007
0.62007
0.620071
0.620071
0.620074
0.620084
0.620124
0.620275
0.620847
0.622976
0.6305
0.653013
0.697047
0.737797
0.75166
0.752841
0.752973
0.753151
0.753487
0.754016
0.75469
0.75532
0.755792
0.756058
0.756113
0.756185
0.756891
0.761714
0.781879
0.83525
0.929831
1.042
1.15179
1.21751
1.26276
1.29685
1.30648
1.30671
1.3045
1.30577
1.29935
1.29113
1.28781
1.28652
1.28356
1.27971
1.2786
1.27856
1.27797
1.27639
1.27485
1.27373
1.27239
1.27062
1.26815
1.26537
1.26283
1.26025
1.25655
1.25139
1.24824
1.24536
1.24252
1.23865
0.62007
0.62007
0.62007
0.62007
0.62007
0.62007
0.620071
0.620071
0.620074
0.620084
0.620124
0.620275
0.620847
0.622976
0.6305
0.653013
0.697047
0.737797
0.75166
0.752841
0.752973
0.753151
0.753488
0.754016
0.754691
0.75532
0.755797
0.75606
0.756105
0.756103
0.756067
0.755947
0.756074
0.757328
0.764261
0.787859
0.843517
0.931609
1.03446
1.13162
1.19776
1.24272
1.2755
1.2937
1.29562
1.29272
1.29216
1.29316
1.28648
1.27812
1.27492
1.27404
1.27166
1.26812
1.2665
1.26639
1.26581
1.26455
1.26303
1.26124
1.25946
1.25782
1.25563
1.25242
1.24933
1.24668
1.24211
1.23752
0.62007
0.62007
0.62007
0.62007
0.62007
0.62007
0.620071
0.620071
0.620074
0.620084
0.620124
0.620275
0.620847
0.622976
0.6305
0.653013
0.697047
0.737797
0.75166
0.752841
0.752973
0.753151
0.753488
0.754016
0.754691
0.75532
0.755798
0.75606
0.756105
0.756102
0.75606
0.755968
0.75585
0.755708
0.75557
0.755752
0.757307
0.764372
0.786049
0.834472
0.911404
1.00501
1.09657
1.16749
1.21324
1.2473
1.27266
1.28234
1.28299
1.27955
1.27947
1.28118
1.27595
1.26796
1.26312
1.26189
1.25966
1.25633
1.25374
1.25294
1.25211
1.25108
1.25013
1.24852
1.24624
1.24469
1.24187
1.23852
0.62007
0.62007
0.62007
0.62007
0.62007
0.62007
0.620071
0.620071
0.620074
0.620084
0.620124
0.620275
0.620847
0.622976
0.6305
0.653013
0.697047
0.737797
0.75166
0.752841
0.752973
0.753151
0.753488
0.754016
0.754691
0.75532
0.755798
0.75606
0.756105
0.756102
0.75606
0.755972
0.755851
0.755706
0.755563
0.755428
0.755283
0.755179
0.755293
0.756475
0.761893
0.778321
0.815145
0.876776
0.957549
1.04254
1.11823
1.1728
1.21032
1.23899
1.26099
1.26978
1.27078
1.26894
1.26692
1.26855
1.26509
1.25682
1.25041
1.2479
1.24593
1.24298
1.24035
1.23938
1.23834
1.23718
1.23681
1.23391
0.62007
0.62007
0.62007
0.62007
0.62007
0.62007
0.620071
0.620071
0.620074
0.620084
0.620124
0.620275
0.620847
0.622976
0.6305
0.653013
0.697047
0.737797
0.75166
0.752841
0.752973
0.753151
0.753488
0.754016
0.754691
0.75532
0.755798
0.75606
0.756105
0.756102
0.75606
0.755972
0.755851
0.755707
0.755564
0.755426
0.755289
0.755149
0.754983
0.75481
0.754699
0.75482
0.755655
0.75891
0.768794
0.791984
0.834796
0.897067
0.972354
1.04753
1.11347
1.1609
1.19562
1.22312
1.24433
1.2567
1.25765
1.25704
1.25333
1.25356
1.25231
1.2447
1.23703
1.23313
1.23092
1.22766
1.22671
1.22343
0.62007
0.62007
0.62007
0.62007
0.62007
0.62007
0.620071
0.620071
0.620074
0.620084
0.620124
0.620275
0.620847
0.622976
0.6305
0.653013
0.697047
0.737797
0.75166
0.752841
0.752973
0.753151
0.753488
0.754016
0.754691
0.75532
0.755798
0.75606
0.756105
0.756102
0.75606
0.755972
0.755851
0.755707
0.755564
0.755427
0.755288
0.755149
0.754983
0.754808
0.754675
0.754644
0.754674
0.754713
0.754766
0.755094
0.756441
0.760759
0.772168
0.796065
0.836942
0.893869
0.961155
1.0295
1.09071
1.13828
1.17306
1.20069
1.22282
1.23911
1.24284
1.24278
1.2389
1.23645
1.23607
1.22939
1.2225
1.2171
0.62007
0.62007
0.62007
0.62007
0.62007
0.62007
0.620071
0.620071
0.620074
0.620084
0.620124
0.620275
0.620847
0.622976
0.6305
0.653013
0.697047
0.737797
0.75166
0.752841
0.752973
0.753151
0.753488
0.754016
0.754691
0.75532
0.755798
0.75606
0.756105
0.756102
0.75606
0.755972
0.755851
0.755707
0.755564
0.755427
0.755288
0.755149
0.754983
0.754808
0.754675
0.754644
0.754675
0.754703
0.754692
0.754674
0.754632
0.754535
0.754549
0.754914
0.756379
0.760604
0.770781
0.791107
0.825404
0.873973
0.93289
0.995109
1.05467
1.10472
1.14215
1.17349
1.19657
1.21897
1.22534
1.22649
1.22431
1.22044
0.62007
0.62007
0.62007
0.62007
0.62007
0.62007
0.620071
0.620071
0.620074
0.620084
0.620124
0.620275
0.620847
0.622976
0.6305
0.653013
0.697047
0.737797
0.75166
0.752841
0.752973
0.753151
0.753488
0.754016
0.754691
0.75532
0.755798
0.75606
0.756105
0.756102
0.75606
0.755972
0.755851
0.755707
0.755564
0.755427
0.755288
0.755149
0.754983
0.754808
0.754675
0.754644
0.754675
0.754703
0.754692
0.754674
0.754629
0.754532
0.754414
0.754381
0.754416
0.754491
0.754665
0.755127
0.756411
0.75966
0.766948
0.781588
0.80696
0.84615
0.895412
0.953144
1.01006
1.06789
1.10858
1.1427
1.17026
1.19177
0.62007
0.62007
0.62007
0.62007
0.62007
0.62007
0.620071
0.620071
0.620074
0.620084
0.620124
0.620275
0.620847
0.622976
0.6305
0.653013
0.697047
0.737797
0.75166
0.752841
0.752973
0.753151
0.753488
0.754016
0.754691
0.75532
0.755798
0.75606
0.756105
0.756102
0.75606
0.755972
0.755851
0.755707
0.755564
0.755427
0.755288
0.755149
0.754983
0.754808
0.754675
0.754644
0.754675
0.754703
0.754692
0.754674
0.754629
0.754532
0.754414
0.75438
0.754412
0.754472
0.754568
0.754716
0.754937
0.755202
0.755356
0.75557
0.756185
0.757942
0.762228
0.771677
0.789567
0.819555
0.863403
0.912336
0.98095
1.01237
0.62007
0.62007
0.62007
0.62007
0.62007
0.62007
0.620071
0.620071
0.620074
0.620084
0.620124
0.620275
0.620847
0.622976
0.6305
0.653013
0.697047
0.737797
0.75166
0.752841
0.752973
0.753151
0.753488
0.754016
0.754691
0.75532
0.755798
0.75606
0.756105
0.756102
0.75606
0.755972
0.755851
0.755707
0.755564
0.755427
0.755288
0.755149
0.754983
0.754808
0.754675
0.754644
0.754675
0.754703
0.754692
0.754674
0.754629
0.754532
0.754414
0.75438
0.754412
0.754472
0.754568
0.754715
0.754935
0.7552
0.755293
0.755311
0.755315
0.755298
0.755242
0.755259
0.755488
0.756376
0.759074
0.764772
0.785611
0.783869
0.62007
0.62007
0.62007
0.62007
0.62007
0.62007
0.620071
0.620071
0.620074
0.620084
0.620124
0.620275
0.620847
0.622976
0.6305
0.653013
0.697047
0.737797
0.75166
0.752841
0.752973
0.753151
0.753488
0.754016
0.754691
0.75532
0.755798
0.75606
0.756105
0.756102
0.75606
0.755972
0.755851
0.755707
0.755564
0.755427
0.755288
0.755149
0.754983
0.754808
0.754675
0.754644
0.754675
0.754703
0.754692
0.754674
0.754629
0.754532
0.754414
0.75438
0.754412
0.754472
0.754568
0.754715
0.754935
0.7552
0.755293
0.755311
0.755313
0.755291
0.75523
0.755137
0.755044
0.754966
0.754906
0.754869
0.755264
0.753803
0.62007
0.62007
0.62007
0.62007
0.62007
0.62007
0.620071
0.620071
0.620074
0.620084
0.620124
0.620275
0.620847
0.622976
0.6305
0.653013
0.697047
0.737797
0.75166
0.752841
0.752973
0.753151
0.753488
0.754016
0.754691
0.75532
0.755798
0.75606
0.756105
0.756102
0.75606
0.755972
0.755851
0.755707
0.755564
0.755427
0.755288
0.755149
0.754983
0.754808
0.754675
0.754644
0.754675
0.754703
0.754692
0.754674
0.754629
0.754532
0.754414
0.75438
0.754412
0.754472
0.754568
0.754715
0.754935