/*--------------------------------*- C++ -*----------------------------------*\
| =========                 |                                                 |
| \\      /  F ield         | OpenFOAM: The Open Source CFD Toolbox           |
|  \\    /   O peration     | Version:  2306                                  |
|   \\  /    A nd           | Website:  www.openfoam.com                      |
|    \\/     M anipulation  |                                                 |
\*---------------------------------------------------------------------------*/
FoamFile
{
    version     2.0;
    format      ascii;
    arch        "LSB;label=32;scalar=64";
    class       volScalarField;
    location    "2e-05";
    object      T;
}
// * * * * * * * * * * * * * * * * * * * * * * * * * * * * * * * * * * * * * //

dimensions      [0 0 0 1 0 0 0];

internalField   nonuniform List<scalar> 
9032
(
287.163
287.27
287.271
287.21
287.052
286.772
286.466
286.38
286.41
286.516
286.702
286.862
286.873
286.688
286.01
284.662
282.805
280.517
277.988
275.503
273.368
271.791
270.708
269.974
269.591
269.383
269.219
269.065
268.921
268.787
268.645
268.45
268.146
267.735
267.27
266.809
266.393
266.045
265.777
265.58
265.401
265.169
264.861
264.494
264.099
263.707
263.355
263.064
262.853
262.717
262.619
262.497
262.307
262.037
261.722
261.4
261.079
260.782
260.525
260.291
260.067
259.853
259.626
259.403
259.169
258.938
258.686
258.369
286.697
286.749
286.742
286.67
286.502
286.226
285.917
285.791
285.813
285.914
286.086
286.232
286.256
286.092
285.456
284.149
282.339
280.085
277.551
275.034
272.873
271.261
270.091
269.296
268.896
268.717
268.601
268.489
268.365
268.221
268.044
267.81
267.49
267.095
266.669
266.257
265.887
265.573
265.313
265.083
264.848
264.579
264.267
263.924
263.571
263.228
262.92
262.657
262.448
262.284
262.142
261.988
261.792
261.535
261.242
260.932
260.618
260.322
260.053
259.8
259.574
259.355
259.132
258.903
258.669
258.43
258.194
257.776
285.967
285.844
285.719
285.575
285.371
285.087
284.767
284.541
284.484
284.521
284.623
284.73
284.769
284.656
284.123
282.984
281.317
279.202
276.805
274.395
272.264
270.595
269.392
268.571
268.145
267.964
267.846
267.734
267.606
267.449
267.254
267.01
266.705
266.342
265.951
265.576
265.248
264.966
264.714
264.456
264.168
263.851
263.52
263.195
262.889
262.605
262.35
262.113
261.895
261.691
261.496
261.309
261.117
260.886
260.627
260.338
260.031
259.729
259.445
259.175
258.943
258.73
258.519
258.297
258.049
257.79
257.547
257.019
285.09
284.8
284.503
284.187
283.855
283.507
283.138
282.815
282.605
282.534
282.551
282.605
282.632
282.578
282.205
281.361
279.947
278.094
275.916
273.614
271.434
269.591
268.199
267.24
266.669
266.41
266.272
266.183
266.09
265.963
265.795
265.578
265.304
264.971
264.597
264.231
263.914
263.644
263.398
263.143
262.857
262.544
262.215
261.894
261.598
261.336
261.107
260.89
260.676
260.46
260.242
260.03
259.822
259.591
259.344
259.068
258.771
258.469
258.175
257.892
257.647
257.424
257.211
256.987
256.734
256.465
256.231
255.669
284.199
283.74
283.289
282.853
282.422
281.988
281.538
281.092
280.716
280.475
280.366
280.358
280.349
280.305
280.081
279.513
278.457
276.947
275.099
273.005
270.843
268.847
267.223
266.05
265.31
264.918
264.694
264.595
264.516
264.408
264.266
264.084
263.857
263.577
263.233
262.867
262.529
262.227
261.95
261.681
261.411
261.134
260.844
260.546
260.254
259.982
259.741
259.518
259.309
259.103
258.893
258.676
258.446
258.187
257.919
257.632
257.338
257.043
256.753
256.47
256.213
255.97
255.739
255.502
255.246
254.976
254.763
254.249
283.397
282.842
282.3
281.791
281.301
280.805
280.295
279.763
279.296
278.95
278.734
278.64
278.573
278.485
278.309
277.902
277.164
275.956
274.385
272.504
270.405
268.312
266.481
265.095
264.196
263.686
263.356
263.21
263.125
263.02
262.885
262.721
262.526
262.3
262.003
261.645
261.287
260.946
260.628
260.33
260.056
259.8
259.546
259.276
258.989
258.705
258.446
258.204
257.988
257.79
257.59
257.367
257.116
256.832
256.549
256.256
255.968
255.673
255.377
255.083
254.806
254.544
254.299
254.058
253.802
253.532
253.32
252.847
282.762
282.186
281.626
281.098
280.58
280.032
279.472
278.921
278.422
278.011
277.732
277.563
277.432
277.297
277.111
276.781
276.22
275.255
273.861
272.136
270.1
267.96
266.029
264.512
263.482
262.887
262.492
262.292
262.196
262.089
261.955
261.798
261.617
261.414
261.144
260.782
260.383
259.989
259.629
259.313
259.041
258.804
258.578
258.334
258.054
257.75
257.458
257.187
256.964
256.785
256.613
256.408
256.156
255.859
255.552
255.23
254.921
254.613
254.323
254.046
253.785
253.535
253.278
253.014
252.73
252.43
252.197
251.741
282.171
281.6
281.05
280.538
280.024
279.455
278.867
278.304
277.794
277.382
277.086
276.872
276.694
276.532
276.343
276.054
275.573
274.731
273.425
271.816
269.867
267.756
265.783
264.189
263.073
262.4
261.968
261.736
261.637
261.533
261.388
261.2
260.972
260.721
260.437
260.09
259.701
259.306
258.954
258.65
258.38
258.127
257.877
257.618
257.33
257.014
256.712
256.442
256.234
256.078
255.929
255.732
255.468
255.144
254.806
254.464
254.15
253.863
253.609
253.362
253.104
252.832
252.533
252.233
251.923
251.621
251.383
250.986
281.593
281.029
280.514
280.038
279.532
278.969
278.387
277.822
277.29
276.862
276.56
276.33
276.146
275.97
275.775
275.494
275.042
274.264
273.046
271.546
269.683
267.622
265.633
263.975
262.793
262.05
261.59
261.35
261.24
261.126
260.95
260.707
260.419
260.126
259.846
259.562
259.253
258.912
258.581
258.258
257.934
257.615
257.31
257.026
256.744
256.454
256.186
255.946
255.755
255.596
255.422
255.192
254.902
254.563
254.234
253.914
253.63
253.368
253.125
252.864
252.577
252.281
251.968
251.68
251.387
251.11
250.875
250.526
281.084
280.504
280.011
279.564
279.085
278.551
277.984
277.413
276.865
276.414
276.066
275.807
275.615
275.438
275.251
274.973
274.536
273.807
272.684
271.278
269.485
267.458
265.457
263.743
262.511
261.709
261.207
260.95
260.824
260.701
260.516
260.268
259.981
259.689
259.419
259.165
258.904
258.583
258.232
257.861
257.482
257.121
256.798
256.519
256.267
256.022
255.794
255.57
255.364
255.161
254.938
254.685
254.407
254.102
253.81
253.512
253.229
252.944
252.671
252.395
252.113
251.847
251.574
251.328
251.06
250.784
250.515
250.176
280.54
279.922
279.468
279.07
278.653
278.135
277.563
276.964
276.382
275.913
275.548
275.281
275.078
274.913
274.729
274.451
274.033
273.359
272.315
270.977
269.226
267.228
265.216
263.444
262.171
261.339
260.794
260.509
260.379
260.269
260.11
259.897
259.638
259.351
259.063
258.78
258.497
258.164
257.802
257.427
257.055
256.708
256.395
256.122
255.88
255.653
255.432
255.192
254.954
254.72
254.489
254.259
254.01
253.735
253.444
253.128
252.813
252.498
252.217
251.969
251.744
251.53
251.289
251.046
250.765
250.463
250.148
249.802
280.004
279.394
278.963
278.592
278.219
277.699
277.106
276.462
275.833
275.361
275.005
274.744
274.557
274.405
274.209
273.914
273.517
272.903
271.926
270.636
268.917
266.948
264.926
263.111
261.796
260.978
260.426
260.116
259.973
259.86
259.713
259.52
259.283
259.001
258.689
258.366
258.043
257.696
257.349
257.003
256.665
256.349
256.05
255.775
255.517
255.273
255.035
254.786
254.56
254.351
254.147
253.927
253.668
253.376
253.052
252.708
252.367
252.051
251.81
251.624
251.447
251.245
250.984
250.699
250.384
250.059
249.757
249.486
279.525
278.942
278.468
278.078
277.716
277.203
276.627
275.967
275.28
274.781
274.425
274.181
274.022
273.865
273.665
273.365
273.006
272.44
271.512
270.26
268.584
266.646
264.613
262.767
261.417
260.613
260.116
259.779
259.612
259.482
259.327
259.133
258.899
258.617
258.287
257.937
257.59
257.24
256.915
256.602
256.296
256.002
255.708
255.419
255.137
254.877
254.644
254.421
254.235
254.05
253.852
253.608
253.312
252.987
252.63
252.277
251.954
251.681
251.487
251.334
251.144
250.9
250.605
250.29
249.969
249.662
249.393
249.158
278.999
278.396
277.887
277.464
277.066
276.6
276.103
275.497
274.801
274.26
273.869
273.607
273.45
273.283
273.094
272.818
272.491
271.959
271.063
269.824
268.193
266.294
264.274
262.425
261.051
260.25
259.838
259.483
259.286
259.13
258.946
258.726
258.478
258.199
257.883
257.552
257.217
256.882
256.573
256.269
255.965
255.66
255.347
255.041
254.75
254.502
254.293
254.109
253.952
253.757
253.528
253.242
252.922
252.587
252.246
251.922
251.629
251.386
251.2
251.027
250.794
250.517
250.21
249.9
249.593
249.32
249.085
248.847
278.398
277.75
277.245
276.794
276.341
275.954
275.559
275.058
274.439
273.859
273.389
273.049
272.855
272.678
272.506
272.256
271.933
271.414
270.529
269.295
267.703
265.85
263.882
262.068
260.691
259.884
259.527
259.19
258.96
258.778
258.565
258.321
258.066
257.806
257.529
257.236
256.919
256.59
256.272
255.948
255.622
255.295
254.974
254.676
254.41
254.196
254.005
253.825
253.637
253.401
253.136
252.84
252.533
252.219
251.909
251.616
251.344
251.113
250.9
250.683
250.42
250.147
249.859
249.58
249.299
249.051
248.818
248.544
277.587
277.154
276.717
276.234
275.781
275.392
275.04
274.631
274.125
273.534
272.964
272.515
272.248
272.059
271.916
271.708
271.38
270.849
269.938
268.645
267.044
265.238
263.361
261.644
260.335
259.547
259.191
258.881
258.648
258.461
258.242
257.995
257.738
257.481
257.221
256.946
256.632
256.297
255.96
255.611
255.265
254.938
254.646
254.386
254.155
253.956
253.741
253.523
253.279
253.006
252.73
252.446
252.157
251.871
251.595
251.33
251.069
250.827
250.571
250.323
250.054
249.811
249.554
249.315
249.063
248.825
248.581
248.252
277.435
276.901
276.494
275.894
275.42
274.981
274.596
274.256
273.758
273.147
272.499
271.953
271.604
271.446
271.356
271.204
270.882
270.315
269.342
267.94
266.303
264.517
262.725
261.142
259.973
259.23
258.84
258.567
258.358
258.178
257.969
257.731
257.472
257.204
256.929
256.643
256.319
255.974
255.619
255.262
254.928
254.638
254.394
254.167
253.949
253.731
253.478
253.224
252.943
252.651
252.364
252.079
251.797
251.534
251.282
251.039
250.777
250.521
250.235
249.974
249.708
249.489
249.259
249.055
248.833
248.596
248.346
247.985
275.66
277.093
276.448
275.799
275.181
274.624
274.201
273.756
273.255
272.654
271.981
271.362
270.983
270.883
270.864
270.783
270.497
269.903
268.865
267.344
265.619
263.819
262.087
260.655
259.642
258.947
258.537
258.294
258.111
257.934
257.727
257.487
257.215
256.922
256.616
256.303
255.962
255.61
255.261
254.926
254.627
254.38
254.179
253.973
253.751
253.495
253.213
252.942
252.647
252.347
252.049
251.754
251.468
251.212
250.97
250.739
250.48
250.222
249.92
249.649
249.383
249.168
248.949
248.767
248.569
248.335
248.092
247.739
249.131
275.248
276.004
275.269
274.653
274.12
273.652
273.152
272.682
272.11
271.432
270.825
270.463
270.414
270.464
270.431
270.214
269.631
268.56
266.924
265.089
263.249
261.544
260.23
259.337
258.681
258.274
258.049
257.885
257.71
257.496
257.239
256.937
256.61
256.274
255.937
255.588
255.242
254.912
254.606
254.35
254.148
253.97
253.752
253.504
253.215
252.921
252.648
252.357
252.067
251.774
251.473
251.179
250.92
250.676
250.456
250.205
249.952
249.644
249.363
249.091
248.856
248.631
248.451
248.266
248.04
247.815
247.486
195.72
256.538
273.622
274.404
274.155
273.638
273.009
272.524
272.06
271.559
270.958
270.43
270.122
270.074
270.137
270.121
269.943
269.405
268.322
266.591
264.665
262.768
261.078
259.854
259.043
258.421
258.035
257.822
257.661
257.478
257.247
256.96
256.624
256.268
255.913
255.568
255.218
254.888
254.597
254.331
254.109
253.923
253.729
253.484
253.208
252.898
252.602
252.327
252.04
251.768
251.49
251.199
250.91
250.649
250.403
250.186
249.945
249.701
249.405
249.124
248.852
248.586
248.34
248.143
247.958
247.739
247.528
247.209
180.221
204.51
256.647
273.87
273.8
273.006
272.414
271.958
271.529
271.116
270.593
270.189
269.96
269.84
269.859
269.821
269.624
269.079
267.994
266.225
264.265
262.319
260.652
259.505
258.767
258.174
257.81
257.611
257.455
257.26
257.001
256.675
256.301
255.919
255.552
255.212
254.889
254.601
254.352
254.115
253.897
253.695
253.47
253.212
252.922
252.596
252.289
251.992
251.69
251.424
251.161
250.899
250.64
250.395
250.146
249.919
249.682
249.444
249.174
248.904
248.643
248.363
248.104
247.883
247.682
247.456
247.245
246.925
180
180.609
207.577
261.714
271.502
272.196
272.12
271.713
271.164
270.731
270.323
269.988
269.844
269.718
269.626
269.524
269.255
268.636
267.509
265.81
263.863
261.885
260.246
259.174
258.51
257.94
257.592
257.398
257.243
257.038
256.754
256.392
255.983
255.58
255.218
254.904
254.629
254.385
254.158
253.929
253.707
253.478
253.223
252.96
252.663
252.323
252.004
251.669
251.34
251.064
250.818
250.6
250.385
250.15
249.888
249.64
249.398
249.156
248.911
248.662
248.427
248.159
247.908
247.678
247.454
247.21
246.982
246.663
180
180.001
180.879
214.616
260.277
272.142
271.967
271.353
270.818
270.428
270.043
269.731
269.652
269.604
269.436
269.226
268.868
268.118
266.916
265.34
263.404
261.418
259.849
258.894
258.29
257.721
257.399
257.2
257.027
256.806
256.498
256.107
255.677
255.271
254.922
254.633
254.393
254.191
253.985
253.755
253.502
253.235
252.96
252.699
252.405
252.071
251.747
251.388
251.048
250.765
250.533
250.341
250.154
249.909
249.63
249.36
249.11
248.854
248.617
248.386
248.171
247.919
247.684
247.462
247.23
246.98
246.738
246.436
180
180
180.002
181.713
217.336
262.435
271.23
270.867
270.482
270.081
269.619
269.389
269.27
269.233
269.116
268.829
268.375
267.493
266.283
264.783
262.855
260.929
259.489
258.682
258.026
257.495
257.208
257.001
256.794
256.546
256.232
255.846
255.421
255.022
254.684
254.406
254.182
253.994
253.776
253.527
253.239
252.935
252.645
252.381
252.09
251.783
251.469
251.126
250.807
250.54
250.322
250.125
249.939
249.678
249.392
249.109
248.841
248.553
248.3
248.076
247.868
247.627
247.405
247.192
246.958
246.713
246.48
246.211
180
180
180
180.006
182.239
216.999
261.052
269.948
270.253
269.741
269.169
268.954
268.811
268.747
268.651
268.336
267.776
266.801
265.588
264.036
262.145
260.331
259.075
258.39
257.705
257.271
256.998
256.787
256.555
256.288
255.984
255.627
255.222
254.834
254.493
254.198
253.958
253.756
253.522
253.262
252.939
252.604
252.291
252.004
251.71
251.429
251.146
250.851
250.578
250.344
250.127
249.909
249.703
249.443
249.17
248.896
248.623
248.313
248.037
247.803
247.572
247.321
247.098
246.88
246.636
246.399
246.184
245.929
180
180
180
180
180.008
181.97
216.904
259.026
270.17
269.444
268.815
268.465
268.311
268.297
268.171
267.79
267.124
266.069
264.8
263.17
261.337
259.67
258.586
257.983
257.394
257.049
256.796
256.575
256.323
256.041
255.751
255.434
255.064
254.684
254.329
254.007
253.736
253.504
253.26
252.988
252.645
252.295
251.961
251.639
251.33
251.058
250.808
250.555
250.313
250.099
249.873
249.642
249.419
249.176
248.924
248.675
248.408
248.107
247.836
247.596
247.327
247.059
246.827
246.585
246.319
246.074
245.867
245.593
180
180
180
180
180
180.007
182.037
212.134
258.552
267.067
268.193
268.023
267.906
268.01
267.881
267.511
266.741
265.653
264.188
262.384
260.567
259.041
258.078
257.565
257.143
256.895
256.673
256.418
256.133
255.822
255.529
255.245
254.913
254.539
254.173
253.833
253.532
253.252
252.978
252.69
252.352
252.007
251.666
251.33
251.019
250.752
250.518
250.27
250.027
249.8
249.554
249.315
249.088
248.861
248.628
248.408
248.157
247.882
247.639
247.412
247.131
246.859
246.627
246.356
246.07
245.808
245.578
245.261
180
180
180
180
180
180
180.006
181.37
210.011
253.009
265.97
268.311
268.134
267.945
267.91
267.596
266.867
265.487
263.523
261.639
260.021
258.715
257.806
257.317
257.052
256.835
256.623
256.33
255.991
255.633
255.298
255.002
254.692
254.315
253.939
253.586
253.257
252.922
252.599
252.302
252.011
251.725
251.43
251.132
250.844
250.574
250.32
250.046
249.776
249.509
249.228
248.972
248.742
248.522
248.304
248.1
247.861
247.606
247.388
247.172
246.897
246.649
246.441
246.167
245.893
245.624
245.358
245.008
180
180
180
180
180
180
180
180.004
181.028
203.814
245.123
264.679
268.072
267.94
267.775
267.351
266.334
264.588
262.564
260.931
259.711
258.582
257.751
257.315
257.041
256.817
256.565
256.221
255.81
255.411
255.025
254.687
254.368
253.999
253.619
253.25
252.882
252.518
252.179
251.874
251.603
251.367
251.127
250.882
250.634
250.393
250.152
249.872
249.593
249.296
248.989
248.71
248.462
248.223
247.999
247.789
247.549
247.3
247.094
246.866
246.592
246.376
246.181
245.912
245.667
245.419
245.147
244.802
180
180
180
180
180
180
180
180
180.002
180.546
195.668
238.845
260.892
266.879
267.287
266.932
265.79
263.827
261.732
260.287
259.395
258.506
257.702
257.205
256.89
256.628
256.352
256
255.578
255.151
254.741
254.365
254.015
253.652
253.272
252.89
252.495
252.114
251.761
251.446
251.19
250.98
250.776
250.56
250.33
250.11
249.882
249.624
249.371
249.099
248.817
248.549
248.296
248.021
247.775
247.542
247.291
247.033
246.81
246.54
246.256
246.055
245.841
245.579
245.354
245.119
244.859
244.539
180
180
180
180
180
180
180
180
180
180.002
180.206
190.509
226.552
259.484
266.243
266.161
265.276
263.472
261.316
259.881
259.103
258.321
257.57
257.018
256.64
256.34
256.058
255.747
255.369
254.952
254.516
254.085
253.69
253.317
252.963
252.607
252.235
251.872
251.518
251.184
250.904
250.669
250.451
250.215
249.965
249.74
249.505
249.265
249.04
248.807
248.567
248.342
248.114
247.847
247.609
247.364
247.115
246.858
246.603
246.29
245.989
245.76
245.497
245.232
244.996
244.734
244.484
244.18
180
180
180
180
180
180
180
180
180
180.002
180.006
180.111
184.813
216.6
250.813
264.377
264.527
263.314
261.147
259.618
258.942
258.155
257.52
257.026
256.552
256.12
255.753
255.431
255.118
254.733
254.287
253.818
253.385
252.991
252.637
252.31
251.995
251.688
251.384
251.079
250.797
250.531
250.269
249.966
249.662
249.391
249.115
248.862
248.646
248.441
248.233
248.043
247.819
247.571
247.353
247.118
246.893
246.674
246.411
246.11
245.836
245.576
245.272
244.979
244.7
244.388
244.124
243.818
180
180
180
180
180
180
180
180
180
180.002
180.006
180.024
180.1
182.026
203.932
236.869
257.425
260.644
259.966
258.995
258.587
257.938
257.386
256.824
256.241
255.731
255.317
254.974
254.679
254.316
253.861
253.386
252.956
252.576
252.232
251.922
251.643
251.382
251.118
250.844
250.587
250.349
250.11
249.822
249.522
249.213
248.882
248.573
248.314
248.089
247.886
247.7
247.457
247.227
247.008
246.776
246.57
246.371
246.112
245.864
245.652
245.397
245.126
244.841
244.53
244.193
243.906
243.592
180
180
180
180
180
180
180
180
180
180.002
180.006
180.024
180.089
180.332
181.58
191.558
218.852
242.372
253.488
256.997
257.264
257.108
256.781
256.316
255.674
255.107
254.643
254.304
254.008
253.709
253.312
252.886
252.495
252.127
251.779
251.473
251.21
250.974
250.724
250.463
250.22
249.996
249.767
249.528
249.293
249.042
248.753
248.471
248.194
247.912
247.666
247.434
247.161
246.93
246.682
246.423
246.196
245.977
245.726
245.515
245.335
245.072
244.846
244.617
244.341
244.054
243.787
243.478
180
180
180
180
180
180
180
180
180
180.002
180.006
180.024
180.089
180.337
181.185
183.845
189.309
203.147
221.741
240.736
250.156
255.934
255.908
255.464
255.074
254.722
254.209
253.753
253.402
253.147
252.89
252.54
252.184
251.822
251.474
251.144
250.841
250.569
250.289
250.016
249.766
249.532
249.307
249.102
248.92
248.719
248.474
248.233
247.998
247.763
247.549
247.302
247.019
246.788
246.508
246.195
245.925
245.656
245.369
245.15
244.93
244.657
244.452
244.256
244.019
243.772
243.54
243.236
180
180
180
180
180
180
180
180
180
180.002
180.006
180.024
180.09
180.336
181.199
183.735
188.691
192.734
195.966
204.655
220.377
237.61
248.195
252.647
254.869
254.68
254.222
253.926
253.588
253.117
252.737
252.442
252.128
251.809
251.496
251.175
250.857
250.508
250.14
249.794
249.462
249.144
248.863
248.642
248.477
248.303
248.085
247.875
247.654
247.439
247.245
247.033
246.803
246.607
246.371
246.075
245.819
245.523
245.193
244.94
244.631
244.315
244.071
243.858
243.626
243.376
243.152
242.798
180
180
180
180
180
180
180
180
180
180.002
180.006
180.024
180.09
180.335
181.201
183.739
188.621
192.992
194.524
194.908
196.328
202.912
218.3
234.056
246.183
250.515
252.523
253.217
252.972
252.728
252.411
252.099
251.826
251.51
251.175
250.883
250.628
250.339
250.057
249.814
249.521
249.159
248.771
248.441
248.177
247.925
247.678
247.457
247.225
247.005
246.816
246.618
246.426
246.255
246.041
245.78
245.57
245.336
245.054
244.82
244.511
244.188
243.894
243.625
243.352
243.029
242.76
242.365
180
180
180
180
180
180
180
180
180
180.002
180.006
180.024
180.09
180.336
181.2
183.744
188.587
193.048
194.637
194.75
194.749
194.85
195.991
201.708
214.85
230.908
242.537
249.338
250.118
251.032
251.277
251.241
251.11
250.866
250.529
250.305
250.137
249.879
249.625
249.437
249.224
248.933
248.67
248.462
248.234
247.914
247.557
247.237
246.936
246.646
246.402
246.171
245.966
245.8
245.58
245.342
245.162
244.968
244.729
244.515
244.259
244.01
243.793
243.528
243.255
242.895
242.538
242.158
180
180
180
180
180
180
180
180
180
180.002
180.006
180.024
180.09
180.336
181.2
183.746
188.586
193.045
194.649
194.749
194.743
194.729
194.736
194.826
195.638
200.111
210.992
225.936
238.083
246.181
250.43
249.952
250.078
250.227
249.924
249.625
249.439
249.138
248.912
248.801
248.689
248.436
248.241
248.108
247.961
247.73
247.488
247.255
246.987
246.654
246.3
245.979
245.713
245.471
245.175
244.908
244.707
244.5
244.28
244.076
243.849
243.658
243.486
243.246
243.002
242.731
242.405
242.083
180
180
180
180
180
180
180
180
180
180.002
180.006
180.024
180.09
180.336
181.2
183.746
188.586
193.044
194.649
194.749
194.744
194.729
194.73
194.742
194.765
194.841
195.386
198.232
206.609
219.391
232.377
241.091
246.605
249.77
249.818
249.294
249.339
249.027
248.545
248.309
248.044
247.698
247.54
247.474
247.41
247.227
247.051
246.895
246.696
246.438
246.176
245.945
245.728
245.438
245.078
244.747
244.483
244.212
243.927
243.667
243.411
243.218
243.028
242.765
242.538
242.345
242.085
241.786
180
180
180
180
180
180
180
180
180
180.002
180.006
180.024
180.09
180.336
181.2
183.746
188.586
193.044
194.649
194.749
194.744
194.729
194.73
194.741
194.764
194.794
194.836
194.909
195.199
196.651
201.705
212.038
224.1
235.137
241.603
245.752
248.61
248.779
248.467
248.464
248.283
247.608
247.169
246.986
246.711
246.435
246.322
246.274
246.148
245.926
245.732
245.586
245.428
245.212
244.961
244.738
244.523
244.26
243.907
243.531
243.21
242.963
242.67
242.31
242.048
241.825
241.616
241.277
180
180
180
180
180
180
180
180
180
180.002
180.006
180.024
180.09
180.336
181.2
183.746
188.586
193.044
194.649
194.749
194.744
194.729
194.73
194.741
194.765
194.795
194.836
194.888
194.933
194.974
195.085
195.669
198.079
204.418
214.756
225.543
235.176
240.553
244.233
247.133
247.584
247.532
247.265
247.345
246.857
246.204
245.891
245.763
245.512
245.206
245.054
244.995
244.894
244.712
244.54
244.405
244.247
244.047
243.789
243.514
243.251
242.978
242.615
242.149
241.836
241.546
241.255
240.87
180
180
180
180
180
180
180
180
180
180.002
180.006
180.024
180.09
180.336
181.2
183.746
188.586
193.044
194.649
194.749
194.744
194.729
194.73
194.741
194.765
194.795
194.837
194.888
194.931
194.97
194.997
195.005
195.029
195.179
195.989
198.786
205.319
214.857
224.656
233.218
238.682
242.368
245.081
246.464
246.456
246.189
246.097
246.166
245.657
244.982
244.668
244.561
244.338
244.025
243.849
243.78
243.68
243.522
243.344
243.149
242.948
242.749
242.504
242.187
241.88
241.606
241.179
240.742
180
180
180
180
180
180
180
180
180
180.002
180.006
180.024
180.09
180.336
181.2
183.746
188.586
193.044
194.649
194.749
194.744
194.729
194.73
194.741
194.765
194.795
194.837
194.888
194.931
194.97
194.997
195.005
195.005
194.998
194.982
194.997
195.165
195.981
198.541
204.219
212.642
221.822
230.001
235.962
239.715
242.537
244.708
245.332
245.291
244.946
244.908
245.015
244.6
243.938
243.495
243.349
243.133
242.828
242.586
242.457
242.327
242.181
242.036
241.842
241.601
241.416
241.127
240.789
180
180
180
180
180
180
180
180
180
180.002
180.006
180.024
180.09
180.336
181.2
183.746
188.586
193.044
194.649
194.749
194.744
194.729
194.73
194.741
194.765
194.795
194.837
194.888
194.931
194.97
194.997
195.005
195.005
194.998
194.982
194.96
194.934
194.915
194.923
195.051
195.671
197.598
201.922
208.865
217.163
225.053
231.694
236.241
239.32
241.691
243.614
244.183
244.112
243.894
243.664
243.768
243.484
242.8
242.25
241.988
241.782
241.498
241.241
241.095
240.947
240.796
240.7
240.394
180
180
180
180
180
180
180
180
180
180.002
180.006
180.024
180.09
180.336
181.2
183.746
188.586
193.044
194.649
194.749
194.744
194.729
194.73
194.741
194.765
194.795
194.837
194.888
194.931
194.97
194.997
195.005
195.005
194.998
194.982
194.96
194.935
194.912
194.888
194.864
194.841
194.843
194.921
195.285
196.44
199.18
204.156
210.994
218.519
225.375
231.133
235.089
237.927
240.198
242.007
242.96
242.849
242.715
242.339
242.332
242.217
241.58
240.918
240.539
240.312
240.015
239.875
239.525
180
180
180
180
180
180
180
180
180
180.002
180.006
180.024
180.09
180.336
181.2
183.746
188.586
193.044
194.649
194.749
194.744
194.729
194.73
194.741
194.765
194.795
194.837
194.888
194.931
194.97
194.997
195.005
195.005
194.998
194.982
194.96
194.935
194.912
194.888
194.863
194.841
194.821
194.807
194.806
194.812
194.854
195.016
195.525
196.87
199.682
204.39
210.606
217.339
223.612
228.973
232.991
235.839
238.129
239.996
241.404
241.417
241.361
240.951
240.697
240.648
240.096
239.487
238.982
180
180
180
180
180
180
180
180
180
180.002
180.006
180.024
180.09
180.336
181.2
183.746
188.586
193.044
194.649
194.749
194.744
194.729
194.73
194.741
194.765
194.795
194.837
194.888
194.931
194.97
194.997
195.005
195.005
194.998
194.982
194.96
194.935
194.912
194.888
194.863
194.841
194.821
194.808
194.804
194.804
194.808
194.812
194.813
194.818
194.864
195.037
195.532
196.723
199.098
203.04
208.397
214.445
220.315
225.625
229.958
233.051
235.656
237.591
239.562
239.826
239.772
239.545
239.165
180
180
180
180
180
180
180
180
180
180.002
180.006
180.024
180.09
180.336
181.2
183.746
188.586
193.044
194.649
194.749
194.744
194.729
194.73
194.741
194.765
194.795
194.837
194.888
194.931
194.97
194.997
195.005
195.005
194.998
194.982
194.96
194.935
194.912
194.888
194.863
194.841
194.821
194.808
194.804
194.804
194.808
194.812
194.811
194.806
194.806
194.815
194.831
194.854
194.905
195.047
195.415
196.256
197.955
200.885
205.304
210.539
216.222
221.462
226.62
230.013
232.812
235.168
237.121
180
180
180
180
180
180
180
180
180
180.002
180.006
180.024
180.09
180.336
181.2
183.746
188.586
193.044
194.649
194.749
194.744
194.729
194.73
194.741
194.765
194.795
194.837
194.888
194.931
194.97
194.997
195.005
195.005
194.998
194.982
194.96
194.935
194.912
194.888
194.863
194.841
194.821
194.808
194.804
194.804
194.808
194.812
194.811
194.806
194.806
194.815
194.829
194.843
194.859
194.881
194.907
194.923
194.946
195.015
195.215
195.706
196.795
198.857
202.283
207.086
212.075
218.676
221.341
180
180
180
180
180
180
180
180
180
180.002
180.006
180.024
180.09
180.336
181.2
183.746
188.586
193.044
194.649
194.749
194.744
194.729
194.73
194.741
194.765
194.795
194.837
194.888
194.931
194.97
194.997
195.005
195.005
194.998
194.982
194.96
194.935
194.912
194.888
194.863
194.841
194.821
194.808
194.804
194.804
194.808
194.812
194.811
194.806
194.806
194.815
194.829
194.843
194.859
194.881
194.907
194.916
194.918
194.919
194.917
194.912
194.914
194.939
195.038
195.343
195.991
198.362
198.316
180
180
180
180
180
180
180
180
180
180.002
180.006
180.024
180.09
180.336
181.2
183.746
188.586
193.044
194.649
194.749
194.744
194.729
194.73
194.741
194.765
194.795
194.837
194.888
194.931
194.97
194.997
195.005
195.005
194.998
194.982
194.96
194.935
194.912
194.888
194.863
194.841
194.821
194.808
194.804
194.804
194.808
194.812
194.811
194.806
194.806
194.815
194.829
194.843
194.859
194.881
194.907
194.916
194.918
194.919
194.916
194.91
194.901
194.89
194.881
194.874
194.869
194.911
194.736
180
180
180
180
180
180
180
180
180
180.002
180.006
180.024
180.09
180.336
181.2
183.746
188.586
193.044
194.649
194.749
194.744
194.729
194.73
194.741
194.765
194.795
194.837
194.888
194.931
194.97
194.997
195.005
195.005
194.998
194.982
194.96
194.935
194.912
194.888
194.863
194.841
194.821
194.808
194.804
194.804
194.808
194.812
194.811
194.806
194.806
194.815
194.829
194.843
194.859
194.881
194.907
194.916
194.918
194.919
194.916
194.91
194.901
194.89
194.881
194.872
194.864
194.859
194.841
180
180
180
180
180
180
180
180
180
180.002
180.006
180.024
180.09
180.336
181.2
183.746
188.586
193.044
194.649
194.749
194.744
194.729
194.73
194.741
194.765
194.795
194.837
194.888
194.931
194.97
194.997
195.005
195.005
194.998
194.982
194.96
194.935
194.912
194.888
194.863
194.841
194.821
194.808
194.804
194.804
194.808
194.812
194.811
194.806
194.806
194.815
194.829
194.843
194.859
194.881
194.907
194.916
194.918
194.919
194.916
194.91
194.901
194.89
194.881
194.872
194.864
194.858
194.853
180
180
180
180
180
180
180
180
180
180.002
180.006
180.024
180.09
180.336
181.2
183.746
188.586
193.044
194.649
194.749
194.744
194.729
194.73
194.741
194.765
194.795
194.837
194.888
194.931
194.97
194.997
195.005
195.005
194.998
194.982
194.96
194.935
194.912
194.888
194.863
194.841
194.821
194.808
194.804
194.804
194.808
194.812
194.811
194.806
194.806
194.815
194.829
194.843
194.859
194.881
194.907
194.916
194.918
194.919
194.916
194.91
194.901
194.89
194.881
194.872
194.864
194.858
194.854
180
180
180
180
180
180
180
180
180
180.002
180.006
180.024
180.09
180.336
181.2
183.746
188.586
193.044
194.649
194.749
194.744
194.729
194.73
194.741
194.765
194.795
194.837
194.888
194.931
194.97
194.997
195.005
195.005
194.998
194.982
194.96
194.935
194.912
194.888
194.863
194.841
194.821
194.808
194.804
194.804
194.808
194.812
194.811
194.806
194.806
194.815
194.829
194.843
194.859
194.881
194.907
194.916
194.918
194.919
194.916
194.91
194.901
194.89
194.881
194.872
194.864
194.858
194.854
180
180
180
180
180
180
180
180
180
180.002
180.006
180.024
180.09
180.336
181.2
183.746
188.586
193.044
194.649
194.749
194.744
194.729
194.73
194.741
194.765
194.795
194.837
194.888