/*--------------------------------*- C++ -*----------------------------------*\
| =========                 |                                                 |
| \\      /  F ield         | OpenFOAM: The Open Source CFD Toolbox           |
|  \\    /   O peration     | Version:  2306                                  |
|   \\  /    A nd           | Website:  www.openfoam.com                      |
|    \\/     M anipulation  |                                                 |
\*---------------------------------------------------------------------------*/
FoamFile
{
    version     2.0;
    format      ascii;
    arch        "LSB;label=32;scalar=64";
    class       volVectorField;
    location    "2e-05";
    object      U;
}
// * * * * * * * * * * * * * * * * * * * * * * * * * * * * * * * * * * * * * //

dimensions      [0 1 -1 0 0 0 0];

internalField   nonuniform List<vector> 
9032
(
(314.534 133.606 0)
(314.796 133.66 0)
(315.17 133.733 0)
(315.733 133.824 0)
(316.61 134.036 0)
(317.678 134.482 0)
(318.68 135.013 0)
(319.633 135.514 0)
(320.461 136.001 0)
(321.117 136.371 0)
(321.513 136.629 0)
(321.824 136.771 0)
(322.078 136.878 0)
(322.007 136.883 0)
(322.124 136.881 0)
(322.316 136.89 0)
(322.438 136.902 0)
(322.662 136.797 0)
(323.185 136.686 0)
(324.104 136.716 0)
(325.375 137.014 0)
(326.963 137.621 0)
(328.946 138.255 0)
(331.287 138.953 0)
(333.781 139.902 0)
(336.142 141.017 0)
(338.273 142.163 0)
(340.256 143.229 0)
(342.237 144.185 0)
(344.352 145.072 0)
(346.64 145.925 0)
(348.991 146.748 0)
(351.218 147.543 0)
(353.219 148.36 0)
(355.009 149.225 0)
(356.666 150.111 0)
(358.282 150.983 0)
(359.947 151.822 0)
(361.726 152.62 0)
(363.617 153.354 0)
(365.527 154.01 0)
(367.361 154.616 0)
(369.068 155.24 0)
(370.635 155.91 0)
(372.097 156.617 0)
(373.5 157.359 0)
(374.895 158.117 0)
(376.369 158.879 0)
(377.983 159.639 0)
(379.783 160.368 0)
(381.732 161.077 0)
(383.662 161.761 0)
(385.45 162.415 0)
(387.05 163.069 0)
(388.476 163.728 0)
(389.853 164.341 0)
(391.241 164.965 0)
(392.647 165.608 0)
(394.126 166.229 0)
(395.729 166.846 0)
(397.336 167.536 0)
(398.952 168.184 0)
(400.533 168.871 0)
(402.145 169.514 0)
(403.741 170.232 0)
(405.357 170.917 0)
(406.925 171.617 0)
(409.086 172.568 0)
(314.079 134.696 0)
(314.434 134.712 0)
(314.924 134.674 0)
(315.607 134.685 0)
(316.524 134.789 0)
(317.569 135.143 0)
(318.54 135.695 0)
(319.43 136.285 0)
(320.185 136.85 0)
(320.708 137.402 0)
(321.038 137.835 0)
(321.35 138.015 0)
(321.579 138.142 0)
(321.505 138.167 0)
(321.707 137.974 0)
(321.962 137.874 0)
(322.196 137.715 0)
(322.583 137.406 0)
(323.234 137.137 0)
(324.177 137.034 0)
(325.413 137.138 0)
(326.972 137.465 0)
(328.92 137.863 0)
(331.174 138.428 0)
(333.619 139.318 0)
(335.99 140.487 0)
(338.165 141.765 0)
(340.214 142.979 0)
(342.248 144.038 0)
(344.367 144.962 0)
(346.597 145.802 0)
(348.854 146.56 0)
(350.999 147.249 0)
(352.965 147.952 0)
(354.778 148.729 0)
(356.511 149.577 0)
(358.237 150.467 0)
(360.009 151.393 0)
(361.839 152.331 0)
(363.72 153.221 0)
(365.592 153.991 0)
(367.332 154.604 0)
(368.923 155.135 0)
(370.422 155.67 0)
(371.882 156.263 0)
(373.326 156.945 0)
(374.785 157.691 0)
(376.314 158.49 0)
(377.947 159.302 0)
(379.723 160.068 0)
(381.613 160.798 0)
(383.496 161.467 0)
(385.274 162.073 0)
(386.888 162.728 0)
(388.342 163.385 0)
(389.748 164.002 0)
(391.14 164.664 0)
(392.541 165.322 0)
(394.008 165.905 0)
(395.58 166.509 0)
(397.164 167.155 0)
(398.789 167.744 0)
(400.379 168.414 0)
(402.007 169.047 0)
(403.581 169.831 0)
(405.18 170.532 0)
(406.764 171.287 0)
(408.739 172.15 0)
(314.693 136.045 0)
(315.289 136.109 0)
(315.972 135.99 0)
(316.791 135.732 0)
(317.674 135.584 0)
(318.567 135.72 0)
(319.437 136.149 0)
(320.238 136.776 0)
(320.926 137.518 0)
(321.454 138.284 0)
(321.883 138.895 0)
(322.253 139.248 0)
(322.507 139.405 0)
(322.538 139.475 0)
(322.62 139.334 0)
(322.903 139.202 0)
(323.165 138.934 0)
(323.579 138.414 0)
(324.275 137.726 0)
(325.272 137.147 0)
(326.56 136.8 0)
(328.217 136.658 0)
(330.251 136.713 0)
(332.517 136.929 0)
(334.992 137.516 0)
(337.411 138.605 0)
(339.552 140.001 0)
(341.542 141.385 0)
(343.515 142.565 0)
(345.554 143.526 0)
(347.68 144.332 0)
(349.851 145.016 0)
(351.984 145.632 0)
(353.999 146.309 0)
(355.873 147.132 0)
(357.658 148.071 0)
(359.428 149.057 0)
(361.228 150.058 0)
(363.046 151.028 0)
(364.839 151.9 0)
(366.537 152.643 0)
(368.132 153.25 0)
(369.674 153.793 0)
(371.201 154.338 0)
(372.734 154.936 0)
(374.26 155.636 0)
(375.787 156.403 0)
(377.355 157.229 0)
(378.981 158.052 0)
(380.704 158.796 0)
(382.495 159.5 0)
(384.296 160.148 0)
(386.067 160.727 0)
(387.717 161.378 0)
(389.22 162.036 0)
(390.681 162.648 0)
(392.088 163.324 0)
(393.481 163.988 0)
(394.934 164.532 0)
(396.483 165.094 0)
(398.056 165.697 0)
(399.726 166.225 0)
(401.367 166.868 0)
(403.046 167.456 0)
(404.598 168.293 0)
(406.157 169.006 0)
(407.716 169.901 0)
(409.412 170.595 0)
(316.373 137.253 0)
(317.494 137.38 0)
(318.474 137.55 0)
(319.32 137.601 0)
(320.104 137.491 0)
(320.861 137.365 0)
(321.622 137.438 0)
(322.374 137.805 0)
(323.1 138.389 0)
(323.773 139.107 0)
(324.397 139.801 0)
(324.881 140.432 0)
(325.19 140.856 0)
(325.416 140.996 0)
(325.47 140.999 0)
(325.832 140.892 0)
(326.196 140.635 0)
(326.685 140.092 0)
(327.303 139.363 0)
(328.143 138.694 0)
(329.326 138.143 0)
(330.928 137.706 0)
(332.881 137.554 0)
(335.057 137.673 0)
(337.416 138.079 0)
(339.793 139.04 0)
(341.851 140.423 0)
(343.772 141.817 0)
(345.703 142.971 0)
(347.695 143.876 0)
(349.757 144.622 0)
(351.878 145.264 0)
(354.01 145.885 0)
(356.046 146.646 0)
(357.9 147.619 0)
(359.636 148.708 0)
(361.367 149.767 0)
(363.135 150.721 0)
(364.91 151.526 0)
(366.641 152.188 0)
(368.284 152.786 0)
(369.855 153.368 0)
(371.378 154.002 0)
(372.876 154.699 0)
(374.385 155.451 0)
(375.905 156.253 0)
(377.464 157.009 0)
(379.074 157.737 0)
(380.72 158.418 0)
(382.417 159.052 0)
(384.118 159.737 0)
(385.815 160.422 0)
(387.514 161.055 0)
(389.131 161.77 0)
(390.666 162.416 0)
(392.197 162.979 0)
(393.653 163.624 0)
(395.091 164.228 0)
(396.575 164.714 0)
(398.111 165.287 0)
(399.679 165.904 0)
(401.378 166.447 0)
(403.061 167.096 0)
(404.785 167.648 0)
(406.33 168.472 0)
(407.882 169.139 0)
(409.416 170.129 0)
(410.959 170.786 0)
(318.358 138.46 0)
(319.848 138.744 0)
(321.189 138.984 0)
(322.363 139.127 0)
(323.319 139.18 0)
(324.089 139.168 0)
(324.802 139.221 0)
(325.529 139.502 0)
(326.272 140.038 0)
(327.024 140.805 0)
(327.789 141.575 0)
(328.488 142.266 0)
(329.042 142.824 0)
(329.519 143.094 0)
(329.796 143.189 0)
(330.238 143.095 0)
(330.845 142.76 0)
(331.458 142.153 0)
(332.122 141.361 0)
(332.898 140.441 0)
(333.925 139.58 0)
(335.307 138.811 0)
(337 138.358 0)
(338.94 138.336 0)
(341.086 138.554 0)
(343.35 139.221 0)
(345.309 140.457 0)
(347.17 141.818 0)
(349.078 142.919 0)
(351.036 143.761 0)
(353.051 144.459 0)
(355.132 145.052 0)
(357.274 145.617 0)
(359.367 146.345 0)
(361.238 147.355 0)
(362.916 148.529 0)
(364.548 149.668 0)
(366.184 150.664 0)
(367.818 151.455 0)
(369.454 152.065 0)
(371.09 152.595 0)
(372.719 153.112 0)
(374.304 153.723 0)
(375.827 154.447 0)
(377.316 155.264 0)
(378.787 156.139 0)
(380.296 156.924 0)
(381.87 157.646 0)
(383.498 158.279 0)
(385.186 158.855 0)
(386.854 159.526 0)
(388.492 160.22 0)
(390.111 160.865 0)
(391.657 161.575 0)
(393.169 162.157 0)
(394.715 162.653 0)
(396.198 163.273 0)
(397.682 163.876 0)
(399.198 164.382 0)
(400.737 164.993 0)
(402.324 165.599 0)
(404.04 166.09 0)
(405.747 166.67 0)
(407.485 167.157 0)
(409.044 167.945 0)
(410.612 168.615 0)
(412.19 169.622 0)
(413.761 170.459 0)
(320.281 138.85 0)
(321.889 139.357 0)
(323.372 139.936 0)
(324.745 140.423 0)
(325.958 140.787 0)
(327.029 140.964 0)
(328.013 140.965 0)
(328.939 141.048 0)
(329.788 141.499 0)
(330.641 142.205 0)
(331.511 143.024 0)
(332.326 143.974 0)
(333.074 144.821 0)
(333.782 145.388 0)
(334.398 145.647 0)
(334.962 145.629 0)
(335.703 145.372 0)
(336.368 144.718 0)
(337.07 143.835 0)
(337.787 142.794 0)
(338.661 141.594 0)
(339.861 140.412 0)
(341.403 139.463 0)
(343.13 139.07 0)
(345.027 139.2 0)
(347.131 139.708 0)
(349.019 140.769 0)
(350.816 142.109 0)
(352.697 143.272 0)
(354.629 144.211 0)
(356.601 145.013 0)
(358.634 145.675 0)
(360.741 146.271 0)
(362.844 147.016 0)
(364.715 148.053 0)
(366.327 149.253 0)
(367.865 150.389 0)
(369.396 151.368 0)
(370.939 152.118 0)
(372.518 152.677 0)
(374.142 153.167 0)
(375.8 153.65 0)
(377.426 154.242 0)
(378.966 154.971 0)
(380.419 155.836 0)
(381.825 156.775 0)
(383.294 157.581 0)
(384.862 158.283 0)
(386.518 158.843 0)
(388.245 159.355 0)
(389.935 159.99 0)
(391.559 160.627 0)
(393.116 161.221 0)
(394.573 161.931 0)
(396.015 162.514 0)
(397.512 163.047 0)
(398.977 163.701 0)
(400.497 164.265 0)
(402.048 164.686 0)
(403.601 165.218 0)
(405.213 165.735 0)
(406.906 166.243 0)
(408.591 166.864 0)
(410.282 167.442 0)
(411.852 168.259 0)
(413.445 168.926 0)
(415.096 169.882 0)
(416.822 170.734 0)
(321.613 139.615 0)
(323.249 140.274 0)
(324.886 140.92 0)
(326.503 141.481 0)
(328.019 141.909 0)
(329.39 142.204 0)
(330.561 142.363 0)
(331.564 142.659 0)
(332.543 143.163 0)
(333.499 143.769 0)
(334.46 144.596 0)
(335.48 145.532 0)
(336.524 146.353 0)
(337.533 147.013 0)
(338.456 147.445 0)
(339.212 147.578 0)
(339.983 147.371 0)
(340.677 146.712 0)
(341.299 145.771 0)
(341.946 144.556 0)
(342.709 142.916 0)
(343.777 141.177 0)
(345.151 140.071 0)
(346.712 139.644 0)
(348.435 139.736 0)
(350.427 140.158 0)
(352.343 140.98 0)
(354.13 142.17 0)
(356.011 143.284 0)
(357.949 144.273 0)
(359.909 145.223 0)
(361.898 146.077 0)
(363.947 146.825 0)
(366.022 147.618 0)
(367.926 148.534 0)
(369.557 149.515 0)
(371.056 150.431 0)
(372.509 151.267 0)
(373.97 151.981 0)
(375.48 152.603 0)
(377.051 153.205 0)
(378.672 153.78 0)
(380.287 154.405 0)
(381.849 155.119 0)
(383.314 155.953 0)
(384.717 156.846 0)
(386.182 157.579 0)
(387.751 158.259 0)
(389.423 158.856 0)
(391.191 159.445 0)
(392.925 160.16 0)
(394.554 160.863 0)
(396.065 161.521 0)
(397.465 162.276 0)
(398.861 162.754 0)
(400.309 163.129 0)
(401.738 163.595 0)
(403.234 164.021 0)
(404.762 164.445 0)
(406.284 165.087 0)
(407.871 165.751 0)
(409.506 166.407 0)
(411.164 167.083 0)
(412.821 167.614 0)
(414.432 168.254 0)
(416.056 168.748 0)
(417.72 169.448 0)
(419.694 170.466 0)
(322.887 139.892 0)
(324.62 140.605 0)
(326.345 141.29 0)
(328.056 141.874 0)
(329.676 142.374 0)
(331.136 142.877 0)
(332.421 143.28 0)
(333.537 143.643 0)
(334.565 144.116 0)
(335.551 144.793 0)
(336.663 145.628 0)
(337.925 146.497 0)
(339.185 147.348 0)
(340.367 148.152 0)
(341.444 148.796 0)
(342.336 149.16 0)
(343.123 149.057 0)
(343.808 148.363 0)
(344.386 147.218 0)
(345.011 145.809 0)
(345.744 143.881 0)
(346.785 141.917 0)
(348.116 140.47 0)
(349.61 139.866 0)
(351.234 139.974 0)
(353.12 140.404 0)
(355.066 141.105 0)
(356.891 142.175 0)
(358.77 143.306 0)
(360.685 144.426 0)
(362.616 145.558 0)
(364.587 146.513 0)
(366.594 147.208 0)
(368.615 147.842 0)
(370.518 148.54 0)
(372.199 149.287 0)
(373.709 150.122 0)
(375.113 151.072 0)
(376.507 152.009 0)
(377.947 152.847 0)
(379.441 153.583 0)
(380.988 154.172 0)
(382.558 154.691 0)
(384.135 155.22 0)
(385.648 155.89 0)
(387.077 156.693 0)
(388.559 157.421 0)
(390.136 158.192 0)
(391.83 158.915 0)
(393.639 159.623 0)
(395.413 160.42 0)
(397.078 161.089 0)
(398.624 161.632 0)
(400.027 162.249 0)
(401.37 162.563 0)
(402.741 162.915 0)
(404.088 163.414 0)
(405.521 163.934 0)
(407.004 164.456 0)
(408.534 165.126 0)
(410.136 165.696 0)
(411.737 166.17 0)
(413.346 166.628 0)
(414.928 167.046 0)
(416.517 167.606 0)
(418.149 168.15 0)
(419.747 168.795 0)
(422.023 170.092 0)
(324.192 140.621 0)
(325.945 141.355 0)
(327.673 141.991 0)
(329.4 142.481 0)
(331.012 142.903 0)
(332.476 143.426 0)
(333.796 144.015 0)
(334.914 144.58 0)
(335.89 145.119 0)
(337.006 145.713 0)
(338.339 146.354 0)
(339.745 147.171 0)
(341.143 148.136 0)
(342.441 148.961 0)
(343.612 149.643 0)
(344.575 150.064 0)
(345.364 150.016 0)
(346.026 149.418 0)
(346.586 148.324 0)
(347.256 146.804 0)
(348.071 144.533 0)
(349.206 142.173 0)
(350.601 140.617 0)
(352.058 140.024 0)
(353.637 140.08 0)
(355.422 140.519 0)
(357.367 141.239 0)
(359.277 142.181 0)
(361.178 143.127 0)
(363.064 144.076 0)
(364.927 145.055 0)
(366.801 145.937 0)
(368.689 146.694 0)
(370.588 147.473 0)
(372.448 148.32 0)
(374.177 149.136 0)
(375.757 150.018 0)
(377.158 151.097 0)
(378.543 152.159 0)
(379.978 153.01 0)
(381.424 153.642 0)
(382.874 154.056 0)
(384.357 154.423 0)
(385.898 154.86 0)
(387.44 155.503 0)
(388.932 156.337 0)
(390.487 157.126 0)
(392.1 158.019 0)
(393.815 158.857 0)
(395.635 159.641 0)
(397.432 160.403 0)
(399.119 160.883 0)
(400.682 161.261 0)
(402.072 161.839 0)
(403.406 162.178 0)
(404.743 162.64 0)
(406.069 163.236 0)
(407.502 163.782 0)
(408.979 164.192 0)
(410.496 164.641 0)
(412.038 165.012 0)
(413.557 165.388 0)
(415.103 165.873 0)
(416.632 166.359 0)
(418.2 167.024 0)
(419.834 167.59 0)
(421.372 168.211 0)
(423.731 169.24 0)
(325.919 141.2 0)
(327.517 141.862 0)
(329.17 142.327 0)
(330.821 142.721 0)
(332.36 143.252 0)
(333.795 143.916 0)
(335.161 144.591 0)
(336.376 145.156 0)
(337.43 145.596 0)
(338.606 146.117 0)
(339.94 146.741 0)
(341.372 147.527 0)
(342.821 148.478 0)
(344.134 149.4 0)
(345.231 150.287 0)
(346.121 150.869 0)
(346.92 150.92 0)
(347.654 150.421 0)
(348.31 149.368 0)
(349.113 147.635 0)
(350.072 145.059 0)
(351.323 142.494 0)
(352.763 140.754 0)
(354.255 139.971 0)
(355.86 139.965 0)
(357.599 140.319 0)
(359.517 140.969 0)
(361.469 141.824 0)
(363.39 142.684 0)
(365.25 143.588 0)
(367.044 144.598 0)
(368.821 145.58 0)
(370.603 146.473 0)
(372.377 147.417 0)
(374.135 148.395 0)
(375.859 149.255 0)
(377.516 150.045 0)
(378.946 150.928 0)
(380.301 151.726 0)
(381.664 152.362 0)
(383.025 152.931 0)
(384.412 153.43 0)
(385.87 153.939 0)
(387.417 154.506 0)
(388.983 155.253 0)
(390.543 156.158 0)
(392.179 156.979 0)
(393.832 157.89 0)
(395.547 158.61 0)
(397.298 159.167 0)
(399.011 159.713 0)
(400.665 160.161 0)
(402.24 160.642 0)
(403.655 161.395 0)
(405.059 161.867 0)
(406.452 162.45 0)
(407.835 163.024 0)
(409.269 163.43 0)
(410.719 163.655 0)
(412.199 163.952 0)
(413.699 164.283 0)
(415.167 164.678 0)
(416.655 165.246 0)
(418.134 165.805 0)
(419.668 166.575 0)
(421.276 167.087 0)
(422.782 167.505 0)
(424.889 168.226 0)
(327.457 141.65 0)
(328.832 142.078 0)
(330.435 142.474 0)
(332.073 142.937 0)
(333.744 143.544 0)
(335.284 144.236 0)
(336.743 144.925 0)
(338.008 145.491 0)
(339.048 145.974 0)
(340.209 146.53 0)
(341.521 147.121 0)
(342.935 147.922 0)
(344.349 148.886 0)
(345.6 149.971 0)
(346.64 150.962 0)
(347.552 151.512 0)
(348.412 151.576 0)
(349.219 151.249 0)
(349.975 150.285 0)
(350.919 148.401 0)
(352.004 145.502 0)
(353.355 142.703 0)
(354.834 140.897 0)
(356.384 140.004 0)
(358.042 139.897 0)
(359.809 140.174 0)
(361.667 140.779 0)
(363.576 141.562 0)
(365.468 142.352 0)
(367.27 143.209 0)
(369.001 144.179 0)
(370.721 145.161 0)
(372.455 146.134 0)
(374.161 147.211 0)
(375.845 148.262 0)
(377.545 149.09 0)
(379.218 149.826 0)
(380.68 150.671 0)
(382.062 151.419 0)
(383.431 152.029 0)
(384.774 152.596 0)
(386.127 153.089 0)
(387.53 153.634 0)
(389.01 154.284 0)
(390.544 155.114 0)
(392.146 155.984 0)
(393.831 156.634 0)
(395.475 157.359 0)
(397.129 157.93 0)
(398.811 158.493 0)
(400.463 159.152 0)
(402.086 159.696 0)
(403.629 160.244 0)
(405.05 161.032 0)
(406.479 161.422 0)
(407.888 161.907 0)
(409.301 162.395 0)
(410.736 162.801 0)
(412.215 163.014 0)
(413.761 163.383 0)
(415.307 163.867 0)
(416.769 164.415 0)
(418.208 165.064 0)
(419.599 165.449 0)
(421.002 165.95 0)
(422.46 166.121 0)
(423.935 166.415 0)
(425.584 166.736 0)
(328.471 141.901 0)
(329.878 142.176 0)
(331.563 142.624 0)
(333.411 143.06 0)
(335.411 143.784 0)
(337.093 144.636 0)
(338.545 145.417 0)
(339.649 146.072 0)
(340.544 146.531 0)
(341.704 146.988 0)
(343.016 147.52 0)
(344.451 148.219 0)
(345.866 149.194 0)
(347.11 150.439 0)
(348.202 151.384 0)
(349.084 151.925 0)
(349.937 152.155 0)
(350.81 152.064 0)
(351.715 151.174 0)
(352.841 149.125 0)
(354.045 145.981 0)
(355.461 143.085 0)
(356.983 141.158 0)
(358.567 140.092 0)
(360.223 139.83 0)
(362.056 140.057 0)
(363.905 140.649 0)
(365.726 141.46 0)
(367.504 142.264 0)
(369.197 143.121 0)
(370.834 144.068 0)
(372.497 144.998 0)
(374.218 145.919 0)
(375.915 146.985 0)
(377.579 148.011 0)
(379.227 148.779 0)
(380.828 149.48 0)
(382.28 150.278 0)
(383.704 150.939 0)
(385.138 151.541 0)
(386.523 152.187 0)
(387.884 152.795 0)
(389.263 153.436 0)
(390.702 154.108 0)
(392.212 154.877 0)
(393.81 155.617 0)
(395.507 156.168 0)
(397.147 156.888 0)
(398.783 157.452 0)
(400.417 158.044 0)
(401.985 158.738 0)
(403.505 159.279 0)
(404.965 159.796 0)
(406.359 160.505 0)
(407.771 160.812 0)
(409.152 161.241 0)
(410.549 161.637 0)
(412.05 162.121 0)
(413.644 162.495 0)
(415.298 163.088 0)
(416.909 163.737 0)
(418.386 164.221 0)
(419.78 164.706 0)
(421.124 164.946 0)
(422.497 165.407 0)
(423.946 165.441 0)
(425.539 165.728 0)
(427.302 165.831 0)
(329.493 141.841 0)
(331.236 142.195 0)
(333.03 142.689 0)
(335.075 143.392 0)
(337.277 144.29 0)
(339.006 145.092 0)
(340.362 145.836 0)
(341.261 146.488 0)
(341.938 146.943 0)
(343.02 147.367 0)
(344.356 147.871 0)
(345.843 148.574 0)
(347.331 149.678 0)
(348.689 150.859 0)
(349.864 151.776 0)
(350.706 152.429 0)
(351.626 152.78 0)
(352.602 152.782 0)
(353.674 151.836 0)
(354.928 149.657 0)
(356.192 146.385 0)
(357.638 143.351 0)
(359.183 141.266 0)
(360.745 140.139 0)
(362.365 139.806 0)
(364.248 139.977 0)
(366.208 140.53 0)
(367.922 141.353 0)
(369.544 142.215 0)
(371.111 143.111 0)
(372.667 144.057 0)
(374.295 144.895 0)
(376.011 145.686 0)
(377.693 146.606 0)
(379.308 147.468 0)
(380.884 148.147 0)
(382.413 148.878 0)
(383.826 149.794 0)
(385.273 150.584 0)
(386.744 151.293 0)
(388.147 152.041 0)
(389.546 152.669 0)
(390.964 153.272 0)
(392.419 153.876 0)
(393.909 154.563 0)
(395.475 155.189 0)
(397.17 155.691 0)
(398.816 156.478 0)
(400.463 157.125 0)
(402.067 157.804 0)
(403.577 158.523 0)
(404.98 158.882 0)
(406.309 159.186 0)
(407.581 159.668 0)
(408.904 159.869 0)
(410.294 160.299 0)
(411.783 160.833 0)
(413.367 161.521 0)
(415.066 162.06 0)
(416.824 162.758 0)
(418.503 163.422 0)
(419.967 163.787 0)
(421.314 164.162 0)
(422.645 164.272 0)
(424.057 164.669 0)
(425.571 164.685 0)
(427.192 165.078 0)
(429.072 165.195 0)
(331.458 142.222 0)
(333.183 142.801 0)
(334.875 143.408 0)
(336.86 144.087 0)
(338.862 144.862 0)
(340.443 145.618 0)
(341.721 146.328 0)
(342.619 146.91 0)
(343.24 147.354 0)
(344.272 147.844 0)
(345.641 148.377 0)
(347.208 149.044 0)
(348.883 150.105 0)
(350.362 151.225 0)
(351.608 152.099 0)
(352.513 152.808 0)
(353.499 153.268 0)
(354.56 153.354 0)
(355.711 152.475 0)
(357.017 150.178 0)
(358.352 146.714 0)
(359.853 143.527 0)
(361.41 141.311 0)
(362.922 140.119 0)
(364.483 139.749 0)
(366.344 139.914 0)
(368.426 140.497 0)
(370.057 141.31 0)
(371.566 142.203 0)
(373.045 143.092 0)
(374.54 143.978 0)
(376.123 144.71 0)
(377.796 145.399 0)
(379.449 146.244 0)
(381.042 147.068 0)
(382.59 147.776 0)
(384.029 148.596 0)
(385.372 149.582 0)
(386.805 150.386 0)
(388.272 151.132 0)
(389.701 151.903 0)
(391.143 152.478 0)
(392.59 152.996 0)
(394.059 153.518 0)
(395.544 154.166 0)
(397.102 154.781 0)
(398.798 155.386 0)
(400.429 156.355 0)
(402.1 157.049 0)
(403.677 157.612 0)
(405.123 158.097 0)
(406.449 158.295 0)
(407.751 158.567 0)
(409.029 159.017 0)
(410.368 159.211 0)
(411.716 159.631 0)
(413.172 160.165 0)
(414.714 160.911 0)
(416.455 161.476 0)
(418.227 162.101 0)
(419.894 162.68 0)
(421.374 163.029 0)
(422.794 163.391 0)
(424.203 163.489 0)
(425.631 163.971 0)
(427.153 164.08 0)
(428.767 164.608 0)
(430.691 164.595 0)
(333.784 143.338 0)
(335.422 143.583 0)
(336.916 144.191 0)
(338.296 145.025 0)
(339.778 145.734 0)
(341.225 146.273 0)
(342.604 146.77 0)
(343.842 147.184 0)
(344.783 147.596 0)
(345.884 148.159 0)
(347.255 148.773 0)
(348.783 149.542 0)
(350.526 150.595 0)
(352.062 151.61 0)
(353.36 152.436 0)
(354.34 153.189 0)
(355.345 153.693 0)
(356.44 153.808 0)
(357.623 152.886 0)
(358.929 150.485 0)
(360.342 146.939 0)
(361.966 143.579 0)
(363.622 141.202 0)
(365.151 139.949 0)
(366.647 139.614 0)
(368.391 139.84 0)
(370.496 140.403 0)
(372.126 141.075 0)
(373.554 141.895 0)
(374.966 142.763 0)
(376.399 143.64 0)
(377.93 144.379 0)
(379.535 145.122 0)
(381.14 146.005 0)
(382.722 146.796 0)
(384.247 147.496 0)
(385.612 148.349 0)
(386.896 149.339 0)
(388.302 150.084 0)
(389.748 150.788 0)
(391.172 151.511 0)
(392.624 152.021 0)
(394.092 152.52 0)
(395.595 153.092 0)
(397.096 153.874 0)
(398.678 154.601 0)
(400.363 155.28 0)
(401.959 156.211 0)
(403.568 156.679 0)
(405.07 157.147 0)
(406.464 157.548 0)
(407.814 157.696 0)
(409.168 157.951 0)
(410.478 158.383 0)
(411.858 158.567 0)
(413.186 159.061 0)
(414.618 159.642 0)
(416.147 160.361 0)
(417.824 160.762 0)
(419.473 161.223 0)
(421.088 161.714 0)
(422.611 162.045 0)
(424.091 162.425 0)
(425.555 162.596 0)
(427.019 163.199 0)
(428.581 163.365 0)
(430.212 163.986 0)
(432.202 163.899 0)
(335.895 142.8 0)
(337.415 143.685 0)
(338.399 145.033 0)
(339.088 146.029 0)
(340.296 146.509 0)
(341.801 146.879 0)
(343.547 147.009 0)
(345.255 147.337 0)
(346.7 147.981 0)
(347.913 148.705 0)
(349.171 149.356 0)
(350.583 150.055 0)
(352.228 150.942 0)
(353.734 151.824 0)
(355.054 152.712 0)
(356.079 153.563 0)
(357.034 154.132 0)
(358.105 154.296 0)
(359.212 153.377 0)
(360.435 150.807 0)
(361.92 146.982 0)
(363.713 143.427 0)
(365.569 140.979 0)
(367.255 139.725 0)
(368.764 139.506 0)
(370.376 139.853 0)
(372.389 140.404 0)
(374.085 140.979 0)
(375.503 141.787 0)
(376.897 142.694 0)
(378.313 143.603 0)
(379.797 144.352 0)
(381.311 145.131 0)
(382.83 146.019 0)
(384.364 146.761 0)
(385.852 147.407 0)
(387.152 148.189 0)
(388.399 149.062 0)
(389.768 149.654 0)
(391.15 150.267 0)
(392.528 150.919 0)
(394.003 151.448 0)
(395.529 152.036 0)
(397.084 152.734 0)
(398.596 153.617 0)
(400.198 154.31 0)
(401.821 154.989 0)
(403.318 155.843 0)
(404.807 156.187 0)
(406.275 156.599 0)
(407.696 156.982 0)
(409.109 157.147 0)
(410.507 157.464 0)
(411.869 157.929 0)
(413.306 158.11 0)
(414.666 158.63 0)
(416.113 159.165 0)
(417.601 159.744 0)
(419.173 160.052 0)
(420.712 160.418 0)
(422.296 160.833 0)
(423.804 161.137 0)
(425.335 161.502 0)
(426.856 161.661 0)
(428.364 162.278 0)
(429.954 162.415 0)
(431.586 163.076 0)
(433.626 162.952 0)
(337.743 143.453 0)
(339.204 144.544 0)
(339.153 145.892 0)
(339.784 146.313 0)
(341.127 146.491 0)
(342.998 146.633 0)
(345.281 147.047 0)
(347.343 147.699 0)
(348.834 148.36 0)
(350.001 149.117 0)
(351.117 149.808 0)
(352.38 150.496 0)
(353.825 151.323 0)
(355.273 152.193 0)
(356.592 153.101 0)
(357.627 153.917 0)
(358.559 154.448 0)
(359.605 154.619 0)
(360.641 153.631 0)
(361.729 150.845 0)
(363.258 146.986 0)
(365.197 143.349 0)
(367.276 140.716 0)
(369.166 139.385 0)
(370.745 139.233 0)
(372.272 139.627 0)
(374.111 140.194 0)
(375.873 140.784 0)
(377.351 141.577 0)
(378.756 142.491 0)
(380.173 143.412 0)
(381.623 144.209 0)
(383.052 145.076 0)
(384.475 146 0)
(385.941 146.662 0)
(387.377 147.223 0)
(388.628 147.928 0)
(389.848 148.65 0)
(391.17 149.108 0)
(392.507 149.69 0)
(393.893 150.356 0)
(395.406 150.91 0)
(396.968 151.563 0)
(398.546 152.353 0)
(400.058 153.275 0)
(401.639 153.874 0)
(403.135 154.486 0)
(404.524 155.212 0)
(405.979 155.48 0)
(407.415 155.917 0)
(408.824 156.333 0)
(410.265 156.548 0)
(411.7 156.946 0)
(413.126 157.427 0)
(414.641 157.569 0)
(416.064 158.068 0)
(417.522 158.569 0)
(418.947 159.081 0)
(420.443 159.334 0)
(421.888 159.649 0)
(423.4 160.04 0)
(424.894 160.27 0)
(426.5 160.603 0)
(428.087 160.719 0)
(429.673 161.322 0)
(431.29 161.336 0)
(432.889 161.94 0)
(434.947 161.804 0)
(349.434 139.166 0)
(340.763 146.033 0)
(340.153 146.436 0)
(340.968 146.436 0)
(343.037 146.352 0)
(345.68 146.403 0)
(348.115 147.127 0)
(349.537 147.982 0)
(350.523 148.836 0)
(351.444 149.754 0)
(352.563 150.528 0)
(353.816 151.14 0)
(355.174 151.761 0)
(356.634 152.53 0)
(357.926 153.485 0)
(358.898 154.35 0)
(359.896 154.815 0)
(360.954 154.936 0)
(362.032 153.858 0)
(363.105 150.851 0)
(364.629 146.646 0)
(366.658 142.821 0)
(368.907 140.242 0)
(370.949 139.152 0)
(372.604 139.159 0)
(374.098 139.6 0)
(375.807 140.216 0)
(377.564 140.886 0)
(379.086 141.691 0)
(380.489 142.598 0)
(381.895 143.466 0)
(383.315 144.207 0)
(384.678 145.03 0)
(386.025 145.857 0)
(387.412 146.437 0)
(388.785 146.952 0)
(390.023 147.6 0)
(391.261 148.222 0)
(392.589 148.639 0)
(393.903 149.246 0)
(395.294 149.926 0)
(396.827 150.523 0)
(398.419 151.249 0)
(399.997 152.099 0)
(401.478 152.91 0)
(402.971 153.298 0)
(404.357 153.844 0)
(405.694 154.453 0)
(407.119 154.669 0)
(408.507 155.129 0)
(409.903 155.569 0)
(411.365 155.83 0)
(412.816 156.307 0)
(414.271 156.784 0)
(415.838 156.914 0)
(417.315 157.416 0)
(418.791 157.904 0)
(420.197 158.332 0)
(421.639 158.581 0)
(422.98 158.892 0)
(424.402 159.283 0)
(425.869 159.404 0)
(427.514 159.71 0)
(429.141 159.753 0)
(430.806 160.289 0)
(432.444 160.201 0)
(434.019 160.722 0)
(436.01 160.513 0)
(417.694 112.949 0)
(344.147 147.85 0)
(340.76 147.269 0)
(342.876 146.675 0)
(346.261 145.514 0)
(349.151 146.046 0)
(350.376 147.366 0)
(350.806 148.942 0)
(351.307 149.951 0)
(352.382 150.382 0)
(353.811 150.683 0)
(355.215 151.231 0)
(356.457 152.004 0)
(357.772 152.994 0)
(358.91 154.159 0)
(359.955 154.892 0)
(361.145 155.315 0)
(362.36 155.141 0)
(363.607 153.666 0)
(364.736 150.358 0)
(366.331 146.26 0)
(368.381 142.557 0)
(370.643 139.947 0)
(372.704 138.88 0)
(374.386 138.87 0)
(375.847 139.285 0)
(377.468 139.957 0)
(379.183 140.707 0)
(380.722 141.56 0)
(382.128 142.478 0)
(383.519 143.308 0)
(384.91 144.003 0)
(386.215 144.796 0)
(387.503 145.579 0)
(388.839 146.08 0)
(390.168 146.571 0)
(391.41 147.224 0)
(392.674 147.825 0)
(394.008 148.24 0)
(395.309 148.933 0)
(396.725 149.72 0)
(398.294 150.391 0)
(399.888 151.06 0)
(401.38 151.746 0)
(402.768 152.374 0)
(404.154 152.663 0)
(405.46 153.15 0)
(406.768 153.647 0)
(408.213 153.825 0)
(409.609 154.307 0)
(411.029 154.736 0)
(412.503 155.008 0)
(413.93 155.531 0)
(415.377 155.984 0)
(416.964 156.137 0)
(418.476 156.653 0)
(419.988 157.138 0)
(421.379 157.473 0)
(422.775 157.715 0)
(424.054 158.042 0)
(425.404 158.46 0)
(426.844 158.507 0)
(428.484 158.837 0)
(430.121 158.837 0)
(431.816 159.313 0)
(433.474 159.151 0)
(435.063 159.622 0)
(436.94 159.306 0)
(553.387 24.4541 0)
(399.972 123.301 0)
(344.221 148.955 0)
(345.309 146.442 0)
(349.384 145.415 0)
(350.958 146.894 0)
(351.044 148.958 0)
(350.833 150.446 0)
(351.718 150.733 0)
(353.454 150.472 0)
(355.169 150.329 0)
(356.641 150.963 0)
(357.803 152.061 0)
(358.713 153.712 0)
(359.787 155.041 0)
(361.066 155.582 0)
(362.432 155.892 0)
(363.968 155.51 0)
(365.483 153.713 0)
(366.681 150.044 0)
(368.228 145.642 0)
(370.239 141.842 0)
(372.468 139.51 0)
(374.505 138.748 0)
(376.205 138.829 0)
(377.628 139.238 0)
(379.174 139.925 0)
(380.813 140.712 0)
(382.331 141.557 0)
(383.729 142.416 0)
(385.092 143.15 0)
(386.429 143.776 0)
(387.667 144.494 0)
(388.923 145.19 0)
(390.235 145.667 0)
(391.53 146.166 0)
(392.766 146.791 0)
(394.06 147.381 0)
(395.443 147.95 0)
(396.767 148.836 0)
(398.228 149.609 0)
(399.797 150.218 0)
(401.312 150.856 0)
(402.7 151.49 0)
(404.018 151.94 0)
(405.358 152.155 0)
(406.601 152.622 0)
(407.886 153.021 0)
(409.325 153.133 0)
(410.722 153.581 0)
(412.157 153.902 0)
(413.634 154.12 0)
(415.02 154.65 0)
(416.459 155.079 0)
(418.046 155.301 0)
(419.56 155.828 0)
(421.091 156.308 0)
(422.495 156.518 0)
(423.905 156.743 0)
(425.2 157.08 0)
(426.533 157.519 0)
(427.961 157.519 0)
(429.529 157.908 0)
(431.107 157.931 0)
(432.78 158.361 0)
(434.423 158.167 0)
(436.05 158.613 0)
(437.777 158.232 0)
(579.519 0.643041 0)
(535.849 40.0332 0)
(383.577 132.649 0)
(352.827 143.359 0)
(351.079 145.702 0)
(350.683 148.875 0)
(349.982 150.384 0)
(351.056 150.863 0)
(352.821 150.892 0)
(355.093 150.074 0)
(356.755 149.844 0)
(358.154 150.599 0)
(359.065 152.15 0)
(359.68 154.385 0)
(360.923 155.762 0)
(362.347 156.347 0)
(363.902 156.522 0)
(365.697 155.736 0)
(367.381 153.402 0)
(368.679 149.396 0)
(370.329 145.101 0)
(372.292 141.496 0)
(374.362 139.3 0)
(376.329 138.54 0)
(378.045 138.644 0)
(379.4 139.118 0)
(380.836 139.837 0)
(382.382 140.619 0)
(383.869 141.439 0)
(385.249 142.265 0)
(386.594 142.955 0)
(387.903 143.561 0)
(389.116 144.235 0)
(390.338 144.811 0)
(391.592 145.198 0)
(392.868 145.693 0)
(394.162 146.437 0)
(395.545 147.103 0)
(396.984 147.689 0)
(398.312 148.619 0)
(399.761 149.412 0)
(401.271 150 0)
(402.701 150.558 0)
(404.058 151.112 0)
(405.334 151.443 0)
(406.599 151.645 0)
(407.749 152.105 0)
(408.979 152.423 0)
(410.364 152.502 0)
(411.733 152.897 0)
(413.188 153.089 0)
(414.703 153.264 0)
(416.103 153.823 0)
(417.562 154.229 0)
(419.102 154.507 0)
(420.561 155 0)
(422.07 155.448 0)
(423.49 155.51 0)
(424.927 155.682 0)
(426.269 155.987 0)
(427.627 156.409 0)
(429.078 156.375 0)
(430.577 156.815 0)
(432.068 156.909 0)
(433.671 157.31 0)
(435.27 157.113 0)
(436.938 157.543 0)
(438.571 157.174 0)
(579.999 0.000882674 0)
(578.739 1.50725 0)
(522.626 47.1455 0)
(388.795 127.845 0)
(349.187 149.17 0)
(349.001 149.648 0)
(350.442 149.529 0)
(353.019 149.558 0)
(355.526 149.953 0)
(357.208 149.804 0)
(358.404 150.016 0)
(359.507 150.756 0)
(360.392 152.321 0)
(361.192 154.553 0)
(362.445 156.121 0)
(363.919 156.787 0)
(365.486 157.013 0)
(367.253 156.133 0)
(369.033 153.405 0)
(370.638 148.986 0)
(372.404 144.383 0)
(374.347 140.878 0)
(376.266 139.058 0)
(378.151 138.563 0)
(379.869 138.813 0)
(381.112 139.345 0)
(382.433 140.018 0)
(383.871 140.663 0)
(385.306 141.343 0)
(386.667 142.082 0)
(388.012 142.725 0)
(389.316 143.3 0)
(390.513 143.906 0)
(391.718 144.441 0)
(392.963 144.873 0)
(394.258 145.423 0)
(395.644 146.128 0)
(397.119 146.774 0)
(398.551 147.449 0)
(399.857 148.406 0)
(401.279 149.129 0)
(402.716 149.608 0)