/*--------------------------------*- C++ -*----------------------------------*\
| =========                 |                                                 |
| \\      /  F ield         | OpenFOAM: The Open Source CFD Toolbox           |
|  \\    /   O peration     | Version:  2306                                  |
|   \\  /    A nd           | Website:  www.openfoam.com                      |
|    \\/     M anipulation  |                                                 |
\*---------------------------------------------------------------------------*/
FoamFile
{
    version     2.0;
    format      ascii;
    arch        "LSB;label=32;scalar=64";
    class       volVectorField;
    location    "7e-05";
    object      U;
}
// * * * * * * * * * * * * * * * * * * * * * * * * * * * * * * * * * * * * * //

dimensions      [0 1 -1 0 0 0 0];

internalField   nonuniform List<vector> 
8941
(
(580 -4.94916e-14 0)
(580 1.64595e-13 0)
(580 2.30268e-13 0)
(580 -1.0425e-14 0)
(580 2.50051e-13 0)
(580 9.4923e-14 0)
(580 2.1779e-14 0)
(580 6.45218e-14 0)
(580 -8.04689e-14 0)
(580 -1.41994e-13 0)
(580 -5.10071e-13 0)
(580 -4.25968e-13 0)
(580 -3.11234e-13 0)
(580 -2.61082e-13 0)
(580 2.98428e-15 0)
(580 -3.38625e-13 0)
(580 -5.3626e-13 0)
(580 -4.61188e-13 0)
(580 -6.6667e-13 0)
(580 -5.33725e-13 0)
(580 -3.20474e-13 0)
(580 -2.15139e-13 0)
(580 -1.43466e-13 0)
(580 1.87982e-13 0)
(580 1.85332e-13 0)
(580 -1.53775e-13 0)
(580 -2.15087e-13 0)
(580 -1.95042e-13 0)
(580 -3.18352e-13 0)
(580 -2.10357e-13 0)
(580 -7.96021e-15 0)
(580 1.5015e-13 0)
(580 7.4579e-14 0)
(580 -3.29204e-13 0)
(580 -5.05171e-13 0)
(580 -5.14295e-13 0)
(580 -3.91963e-13 0)
(580 -9.38059e-14 0)
(580 -6.68767e-14 0)
(580 -2.12449e-13 0)
(580 -1.34434e-13 0)
(580 1.67982e-14 0)
(580 -4.47831e-14 0)
(580 -1.3522e-14 0)
(580 7.05251e-14 0)
(580 7.63361e-15 0)
(580 2.70613e-14 0)
(580 -7.20715e-14 0)
(580 -8.35569e-14 0)
(580 -2.2321e-14 0)
(580 -2.75711e-13 0)
(580 -1.20896e-13 0)
(580 1.53672e-13 0)
(580 3.69679e-13 0)
(580 7.24949e-13 0)
(580 6.98122e-13 0)
(580 2.57684e-13 0)
(580 4.38735e-13 0)
(580 1.01022e-13 0)
(580 -2.82751e-13 0)
(580 -4.14563e-13 0)
(580 -3.67216e-13 0)
(580 -2.81712e-13 0)
(580 -3.61134e-13 0)
(580 -1.49483e-13 0)
(580 -1.9858e-13 0)
(580 -9.84559e-14 0)
(580 1.64976e-13 0)
(580 1.97873e-13 0)
(580 3.52357e-13 0)
(580 4.00289e-13 0)
(580 4.27764e-13 0)
(580 3.24649e-13 0)
(580 2.16075e-13 0)
(580 3.06967e-13 0)
(580 2.743e-13 0)
(580 5.04711e-13 0)
(580 6.71251e-13 0)
(580 7.92009e-13 0)
(580 5.10545e-13 0)
(580 -4.20913e-14 0)
(580 2.59627e-14 0)
(580 -2.53734e-14 0)
(580 -3.15409e-13 0)
(580 1.78983e-13 0)
(580 -1.24346e-13 0)
(580 -1.28591e-13 0)
(580 1.39477e-14 0)
(580 9.02102e-14 0)
(580 -1.64122e-13 0)
(580 -5.43125e-13 0)
(580 -5.44423e-13 0)
(580 -5.82969e-13 0)
(580 -5.56792e-13 0)
(580 -2.79441e-13 0)
(580 -2.17646e-13 0)
(580 -3.11157e-13 0)
(580 -2.98012e-13 0)
(580 -9.3878e-13 0)
(580 -1.52804e-12 0)
(580 -1.03985e-12 0)
(580 -6.6138e-13 0)
(580 -5.34387e-13 0)
(580 3.05313e-14 0)
(580 1.59297e-13 0)
(580 -1.07861e-13 0)
(580 8.01667e-14 0)
(580 -3.62875e-13 0)
(580 -5.99515e-13 0)
(580 -8.2726e-13 0)
(580 -4.40336e-13 0)
(580 -5.1874e-13 0)
(580 -3.81035e-13 0)
(580 -9.60312e-13 0)
(580 -9.58748e-13 0)
(580 -1.12733e-12 0)
(580 -9.71848e-13 0)
(580 -2.61177e-13 0)
(580 -2.23415e-13 0)
(580 -2.91709e-13 0)
(580 -1.76885e-13 0)
(580 2.35095e-13 0)
(580 3.15263e-13 0)
(580 4.28042e-13 0)
(580 5.18021e-13 0)
(580 6.49362e-13 0)
(580 4.93104e-13 0)
(580 2.5848e-13 0)
(580 3.57302e-13 0)
(580 5.13253e-13 0)
(580 1.13928e-13 0)
(580 1.98156e-13 0)
(580 4.07039e-13 0)
(580 -3.73039e-13 0)
(580 9.09832e-14 0)
(580 2.47295e-13 0)
(580 3.72377e-13 0)
(580 4.43414e-13 0)
(580 2.44205e-13 0)
(580 -4.46147e-13 0)
(580 -1.18273e-12 0)
(580 -8.95092e-13 0)
(580 -2.37084e-13 0)
(580 -3.87645e-13 0)
(580 5.54524e-14 0)
(580 3.01584e-13 0)
(580 2.06624e-13 0)
(580 1.73121e-13 0)
(580 3.39842e-13 0)
(580 5.96476e-13 0)
(580 7.57451e-13 0)
(580 8.38751e-13 0)
(580 7.09713e-13 0)
(580 5.29993e-13 0)
(580 5.86701e-13 0)
(580 1.10215e-12 0)
(580 1.2824e-12 0)
(580 1.58682e-12 0)
(580 1.77584e-12 0)
(580 1.1841e-12 0)
(580 2.89051e-14 0)
(580 -4.69863e-13 0)
(580 -8.90499e-13 0)
(580 -7.49026e-13 0)
(580 -2.25907e-13 0)
(580 3.06428e-13 0)
(580 3.50735e-13 0)
(580 4.14478e-13 0)
(580 5.96931e-13 0)
(580 5.82347e-13 0)
(580 4.77326e-13 0)
(580 2.82529e-13 0)
(580 1.4498e-14 0)
(580 -2.80175e-13 0)
(580 -5.19036e-13 0)
(580 -3.63046e-13 0)
(580 -4.33787e-13 0)
(580 -7.78349e-13 0)
(580 -7.80542e-13 0)
(580 -8.3015e-13 0)
(580 -6.1781e-13 0)
(580 -9.80829e-13 0)
(580 -1.09204e-12 0)
(580 -1.03442e-12 0)
(580 -6.1912e-13 0)
(580 1.44199e-13 0)
(580 2.53192e-13 0)
(580 6.80754e-14 0)
(580 2.94094e-13 0)
(580 -2.80453e-15 0)
(580 9.49399e-14 0)
(580 -1.46957e-14 0)
(580 -2.54402e-14 0)
(580 -5.71416e-14 0)
(580 -1.40977e-13 0)
(580 -1.60201e-14 0)
(580 1.39635e-13 0)
(580 3.62826e-13 0)
(580 1.40108e-13 0)
(580 3.69413e-13 0)
(580 5.11359e-13 0)
(580 6.39783e-13 0)
(580 6.603e-13 0)
(580 9.34314e-13 0)
(580 1.39643e-12 0)
(580 1.42606e-12 0)
(580 1.37755e-12 0)
(580 1.08731e-12 0)
(580 9.08882e-13 0)
(580 9.0241e-13 0)
(580 7.07588e-13 0)
(580 -4.11826e-13 0)
(580 -9.28411e-13 0)
(580 -7.71962e-13 0)
(580 -6.34597e-13 0)
(580 7.60341e-14 0)
(580 1.01609e-12 0)
(580 5.21685e-13 0)
(580 -6.98432e-16 0)
(580 -5.4888e-13 0)
(580 -7.72526e-13 0)
(580 -7.32815e-13 0)
(580 -7.461e-13 0)
(580 -3.68398e-13 0)
(580 2.74661e-13 0)
(580 6.14259e-13 0)
(580 8.97965e-13 0)
(580 9.61066e-13 0)
(580 1.07155e-12 0)
(580 8.05263e-13 0)
(580 9.11694e-13 0)
(580 7.5278e-13 0)
(580 8.68983e-13 0)
(580 7.45468e-13 0)
(580 3.50786e-13 0)
(580 5.98582e-13 0)
(580 7.2777e-13 0)
(580 7.95574e-13 0)
(580 1.28957e-12 0)
(580 1.49561e-12 0)
(580 -1.04347e-13 0)
(580 -5.73948e-14 0)
(580 -1.8586e-13 0)
(580 -2.72754e-13 0)
(580 -2.62547e-14 0)
(580 3.16428e-13 0)
(580 5.75353e-14 0)
(580 2.66907e-13 0)
(580 3.37264e-13 0)
(580 4.37384e-13 0)
(580 4.75402e-13 0)
(580 6.50554e-13 0)
(580 6.55669e-13 0)
(580 5.57042e-13 0)
(580 3.23146e-13 0)
(580 6.93132e-14 0)
(580 -1.51561e-13 0)
(580 -5.13776e-13 0)
(580 -5.32096e-13 0)
(580 -4.83797e-13 0)
(580 -6.29402e-13 0)
(580 -5.65059e-13 0)
(580 -6.16391e-13 0)
(580 -7.12114e-13 0)
(580 -9.79562e-13 0)
(580 -1.08156e-12 0)
(580 -1.10681e-12 0)
(580 -8.55776e-13 0)
(580 -6.40499e-13 0)
(580 -2.31897e-13 0)
(580 -3.63617e-14 0)
(580 5.75071e-14 0)
(580 1.6821e-13 0)
(580 3.90333e-13 0)
(580 2.05635e-13 0)
(580 3.39916e-13 0)
(580 2.84492e-13 0)
(580 3.64203e-13 0)
(580 4.56439e-13 0)
(580 7.25378e-13 0)
(580 1.05893e-12 0)
(580 1.25874e-12 0)
(580 1.10574e-12 0)
(580 1.19514e-12 0)
(580 1.45085e-12 0)
(580 1.27289e-12 0)
(580 1.08981e-12 0)
(580 1.1109e-12 0)
(580 8.10331e-13 0)
(580 7.53766e-13 0)
(580 5.60552e-13 0)
(580 3.45737e-13 0)
(580 -1.0741e-13 0)
(580 -2.24571e-15 0)
(580 -1.05066e-13 0)
(580 -1.06689e-14 0)
(580 1.12319e-13 0)
(580 -2.76507e-13 0)
(580 -5.70012e-13 0)
(580 -8.20864e-13 0)
(580 -5.08518e-13 0)
(580 -7.2896e-13 0)
(580 -8.93265e-13 0)
(580 -3.85705e-13 0)
(580 3.07228e-14 0)
(580 1.94538e-13 0)
(580 4.52422e-13 0)
(580 9.05687e-13 0)
(580 1.23968e-12 0)
(580 5.75493e-13 0)
(580 -1.83424e-14 0)
(580 -7.48197e-14 0)
(580 5.17237e-13 0)
(580 1.15248e-12 0)
(580 1.05022e-12 0)
(580 1.05748e-12 0)
(580 1.23099e-12 0)
(580 1.40153e-12 0)
(580 1.53702e-12 0)
(580 1.45529e-12 0)
(580 -2.74127e-15 0)
(580 1.44653e-13 0)
(580 2.98601e-13 0)
(580 8.63212e-14 0)
(580 -9.54522e-14 0)
(580 -2.87234e-13 0)
(580 -4.40009e-13 0)
(580 -2.545e-13 0)
(580 -6.99418e-14 0)
(580 -6.85084e-14 0)
(580 7.26121e-14 0)
(580 3.11004e-13 0)
(580 2.20008e-13 0)
(580 1.09882e-13 0)
(580 2.62341e-14 0)
(580 -1.72071e-13 0)
(580 -2.80411e-13 0)
(580 -5.73195e-13 0)
(580 -4.52175e-13 0)
(580 -2.30881e-13 0)
(580 -4.81956e-13 0)
(580 -4.08035e-13 0)
(580 -2.9154e-13 0)
(580 -2.75429e-13 0)
(580 -6.25661e-13 0)
(580 -8.32358e-13 0)
(580 -8.1567e-13 0)
(580 -7.69951e-13 0)
(580 -4.73829e-13 0)
(580 8.39601e-15 0)
(580 -1.16493e-13 0)
(580 -4.04945e-14 0)
(580 1.54862e-13 0)
(580 3.573e-13 0)
(580 6.61626e-13 0)
(580 7.40226e-13 0)
(580 3.7918e-13 0)
(580 2.48693e-13 0)
(580 4.96724e-13 0)
(580 8.79426e-13 0)
(580 1.30083e-12 0)
(580 1.34837e-12 0)
(580 1.23514e-12 0)
(580 9.92713e-13 0)
(580 7.72853e-13 0)
(580 6.04546e-13 0)
(580 2.84613e-13 0)
(580 4.97964e-13 0)
(580 3.36757e-13 0)
(580 1.17919e-14 0)
(580 4.94007e-14 0)
(580 3.07568e-13 0)
(580 3.35146e-13 0)
(580 2.5107e-13 0)
(580 5.78975e-14 0)
(580 -3.3713e-13 0)
(580 -7.21874e-13 0)
(580 -4.77744e-13 0)
(580 -3.8043e-13 0)
(580 -6.26993e-14 0)
(580 -3.4178e-13 0)
(580 -2.6575e-13 0)
(580 -7.16896e-14 0)
(580 1.11423e-13 0)
(580 3.91475e-13 0)
(580 4.71482e-13 0)
(580 5.74443e-13 0)
(580 9.25541e-13 0)
(580 8.01868e-13 0)
(580 1.17162e-12 0)
(580 8.69674e-13 0)
(580 1.08418e-12 0)
(580 1.21912e-12 0)
(580 1.39478e-12 0)
(580 1.53143e-12 0)
(580 1.68499e-12 0)
(580 1.65442e-12 0)
(580 1.83033e-12 0)
(580 1.70571e-12 0)
(580 1.31225e-12 0)
(580 -4.13992e-14 0)
(580 -1.29699e-14 0)
(580 1.19022e-14 0)
(580 -1.98647e-13 0)
(580 -5.8109e-13 0)
(580 -7.98349e-13 0)
(580 -9.009e-13 0)
(580 -8.62835e-13 0)
(580 -7.50823e-13 0)
(580 -6.88247e-13 0)
(580 -2.69622e-13 0)
(580 -1.97198e-13 0)
(580 -2.55106e-13 0)
(580 -4.86863e-13 0)
(580 -5.51627e-13 0)
(580 -6.37596e-13 0)
(580 -3.60848e-13 0)
(580 -4.61574e-13 0)
(580 -3.41985e-13 0)
(580 -5.14925e-13 0)
(580 -7.65275e-13 0)
(580 -5.79165e-13 0)
(580 -3.42568e-13 0)
(580 -2.06915e-13 0)
(580 -4.42755e-13 0)
(580 -5.00549e-13 0)
(580 -4.13932e-13 0)
(580 -2.95798e-13 0)
(580 -2.82288e-14 0)
(580 1.29761e-13 0)
(580 3.3002e-13 0)
(580 4.74255e-13 0)
(580 3.51444e-13 0)
(580 2.77623e-13 0)
(580 -1.77599e-15 0)
(580 -2.31044e-13 0)
(580 -1.57455e-13 0)
(580 6.76859e-14 0)
(580 5.9502e-13 0)
(580 6.4725e-13 0)
(580 7.2856e-13 0)
(580 5.28222e-13 0)
(580 4.34245e-13 0)
(580 1.636e-13 0)
(580 5.6927e-14 0)
(580 1.31438e-13 0)
(580 3.05353e-13 0)
(580 4.34936e-13 0)
(580 3.01144e-13 0)
(580 3.14293e-14 0)
(580 -8.48124e-15 0)
(580 -6.24164e-14 0)
(580 1.76108e-13 0)
(580 4.43694e-14 0)
(580 -3.95715e-13 0)
(580 -5.76493e-13 0)
(580 -4.94722e-13 0)
(580 -4.2215e-13 0)
(580 -1.863e-13 0)
(580 6.50013e-14 0)
(580 -3.86806e-14 0)
(580 3.85181e-14 0)
(580 4.85763e-13 0)
(580 9.8931e-13 0)
(580 9.96958e-13 0)
(580 8.29997e-13 0)
(580 1.08254e-12 0)
(580 1.17758e-12 0)
(580 1.16911e-12 0)
(580 1.27893e-12 0)
(580 2.00155e-12 0)
(580 2.1173e-12 0)
(580 2.01815e-12 0)
(580 2.15629e-12 0)
(580 2.14378e-12 0)
(580 1.68011e-12 0)
(580 1.63939e-12 0)
(580 1.64755e-12 0)
(580 1.55933e-12 0)
(580 1.36698e-12 0)
(580 4.62557e-14 0)
(580 -6.2457e-14 0)
(580 -2.60949e-13 0)
(580 -5.17497e-13 0)
(580 -7.09523e-13 0)
(580 -7.58746e-13 0)
(580 -7.45456e-13 0)
(580 -7.14714e-13 0)
(580 -7.43875e-13 0)
(580 -6.82421e-13 0)
(580 -6.3295e-13 0)
(580 -6.97374e-13 0)
(580 -4.16167e-13 0)
(580 -4.68791e-13 0)
(580 -7.50205e-13 0)
(580 -7.26327e-13 0)
(580 -5.27009e-13 0)
(580 -3.85888e-13 0)
(580 -5.23203e-13 0)
(580 -6.30962e-13 0)
(580 -6.52561e-13 0)
(580 -5.2713e-13 0)
(580 -2.88172e-13 0)
(580 -1.76639e-13 0)
(580 -1.68295e-13 0)
(580 -2.29549e-13 0)
(580 -2.09353e-13 0)
(580 -2.26141e-14 0)
(580 -1.97615e-13 0)
(580 -2.4525e-13 0)
(580 -1.18935e-13 0)
(580 4.34338e-14 0)
(580 -1.04348e-13 0)
(580 -2.78337e-13 0)
(580 -4.0278e-13 0)
(580 -5.68749e-13 0)
(580 -5.6727e-13 0)
(580 -3.28952e-13 0)
(580 -4.39758e-13 0)
(580 -3.78979e-13 0)
(580 -3.18698e-13 0)
(580 -2.65707e-13 0)
(580 -8.98696e-14 0)
(580 -8.2333e-14 0)
(580 5.63362e-14 0)
(580 8.71118e-14 0)
(580 1.59419e-13 0)
(580 1.83698e-13 0)
(580 -4.48341e-14 0)
(580 -4.39661e-14 0)
(580 -1.44742e-13 0)
(580 -4.7464e-13 0)
(580 -2.7264e-13 0)
(580 6.93201e-14 0)
(580 -1.44173e-13 0)
(580 -4.48366e-13 0)
(580 -1.51565e-13 0)
(580 -3.63167e-14 0)
(580 3.66956e-14 0)
(580 1.57415e-13 0)
(580 7.02106e-13 0)
(580 1.07672e-12 0)
(580 1.35515e-12 0)
(580 1.40556e-12 0)
(580 1.28441e-12 0)
(580 1.11436e-12 0)
(580 1.19836e-12 0)
(580 1.11082e-12 0)
(580 1.19911e-12 0)
(580 1.09469e-12 0)
(580 1.31278e-12 0)
(580 1.26463e-12 0)
(580 1.35955e-12 0)
(580 1.28222e-12 0)
(580 1.47722e-12 0)
(580 1.86778e-12 0)
(580 1.89574e-12 0)
(580 1.72297e-12 0)
(580 1.38295e-12 0)
(580 1.33792e-12 0)
(580 5.28337e-14 0)
(580 -2.02254e-13 0)
(580 -1.54348e-13 0)
(580 -2.5812e-13 0)
(580 -1.76761e-13 0)
(580 -5.23384e-13 0)
(580 -5.02677e-13 0)
(580 -4.05179e-13 0)
(580 -4.85166e-13 0)
(580 -5.14905e-13 0)
(580 -6.84821e-13 0)
(580 -6.6436e-13 0)
(580 -6.00723e-13 0)
(580 -4.27056e-13 0)
(580 -4.76705e-13 0)
(580 -7.09067e-13 0)
(580 -6.64397e-13 0)
(580 -3.24158e-13 0)
(580 -4.01388e-13 0)
(580 -6.25566e-13 0)
(580 -5.38609e-13 0)
(580 -6.8311e-13 0)
(580 -6.82866e-13 0)
(580 -6.66241e-13 0)
(580 -2.07215e-13 0)
(580 1.20477e-13 0)
(580 1.79179e-13 0)
(580 4.82222e-13 0)
(580 2.38948e-13 0)
(580 -1.51891e-13 0)
(580 -1.45278e-13 0)
(580 -1.73618e-13 0)
(580 -2.50627e-13 0)
(580 -3.70233e-13 0)
(580 -1.48806e-13 0)
(580 -2.18413e-13 0)
(580 -2.12124e-13 0)
(580 -3.04993e-13 0)
(580 -4.16846e-13 0)
(580 -5.40893e-13 0)
(580 -5.80889e-13 0)
(580 -4.21206e-13 0)
(580 -1.86404e-13 0)
(580 -2.97852e-13 0)
(580 -3.02957e-13 0)
(580 -1.58115e-13 0)
(580 -3.59668e-13 0)
(580 -4.05033e-13 0)
(580 -2.43584e-13 0)
(580 -3.59752e-13 0)
(580 -4.09119e-13 0)
(580 -2.44489e-13 0)
(580 -2.14345e-13 0)
(580 -5.30006e-14 0)
(580 -2.0889e-13 0)
(580 -3.89129e-13 0)
(580 -5.30429e-14 0)
(580 3.2657e-13 0)
(580 5.43869e-13 0)
(580 6.56976e-13 0)
(580 1.12044e-12 0)
(580 1.51003e-12 0)
(580 1.84553e-12 0)
(580 1.90243e-12 0)
(580 1.62507e-12 0)
(580 1.371e-12 0)
(580 1.04761e-12 0)
(580 9.68369e-13 0)
(580 1.4413e-12 0)
(580 1.55559e-12 0)
(580 1.4599e-12 0)
(580 1.48127e-12 0)
(580 1.54074e-12 0)
(580 1.4055e-12 0)
(580 1.60615e-12 0)
(580 2.00298e-12 0)
(580 1.97789e-12 0)
(580 1.39178e-12 0)
(580 1.08733e-12 0)
(580 8.98268e-13 0)
(580 -1.29223e-13 0)
(580 -5.9933e-14 0)
(580 6.52181e-14 0)
(580 4.61797e-14 0)
(580 3.02703e-14 0)
(580 2.41981e-14 0)
(580 1.10475e-14 0)
(580 -4.82162e-14 0)
(580 -2.22666e-13 0)
(580 -3.08555e-13 0)
(580 -3.93305e-13 0)
(580 -6.91317e-14 0)
(580 -1.15913e-13 0)
(580 -2.85365e-13 0)
(580 -9.37064e-14 0)
(580 -1.09115e-13 0)
(580 -1.23382e-13 0)
(580 -7.0821e-14 0)
(580 -1.77014e-13 0)
(580 -2.03041e-13 0)
(580 -1.53792e-13 0)
(580 -2.15379e-13 0)
(580 -3.79948e-13 0)
(580 -4.73683e-13 0)
(580 -1.65826e-13 0)
(580 1.58167e-13 0)
(580 2.8435e-13 0)
(580 3.12715e-13 0)
(580 3.41799e-13 0)
(580 2.87126e-13 0)
(580 2.08123e-13 0)
(580 9.59003e-14 0)
(580 1.10777e-13 0)
(580 1.48124e-13 0)
(580 3.47188e-13 0)
(580 2.3978e-13 0)
(580 1.07508e-13 0)
(580 -2.6335e-14 0)
(580 -5.19497e-14 0)
(580 -1.14586e-13 0)
(580 -3.78797e-13 0)
(580 -7.18553e-13 0)
(580 -5.51399e-13 0)
(580 -3.92023e-13 0)
(580 -4.76336e-13 0)
(580 -3.5609e-13 0)
(580 -2.44533e-13 0)
(580 -4.02819e-13 0)
(580 -5.08933e-13 0)
(580 -7.24086e-13 0)
(580 -6.99314e-13 0)
(580 -2.88421e-13 0)
(580 3.64611e-14 0)
(580 2.80897e-13 0)
(580 2.84864e-13 0)
(580 5.02159e-13 0)
(580 6.2701e-13 0)
(580 1.13604e-12 0)
(580 1.25317e-12 0)
(580 1.21734e-12 0)
(580 1.32667e-12 0)
(580 1.36022e-12 0)
(580 1.64372e-12 0)
(580 1.64827e-12 0)
(580 1.63305e-12 0)
(580 1.60139e-12 0)
(580 1.57218e-12 0)
(580 1.42914e-12 0)
(580 1.39225e-12 0)
(580 1.64948e-12 0)
(580 1.7091e-12 0)
(580 1.97136e-12 0)
(580 2.01842e-12 0)
(580 2.03886e-12 0)
(580 1.78717e-12 0)
(580 1.56459e-12 0)
(580 1.50327e-12 0)
(580 8.91088e-13 0)
(580 7.67136e-13 0)
(580 4.67413e-13 0)
(580 5.31045e-14 0)
(580 1.17728e-13 0)
(580 8.8837e-14 0)
(580 2.77164e-14 0)
(580 -3.54487e-14 0)
(580 2.34272e-13 0)
(580 2.33054e-13 0)
(580 1.01345e-13 0)
(580 1.00865e-14 0)
(580 6.38113e-14 0)
(580 3.70031e-14 0)
(580 1.56107e-13 0)
(580 1.27548e-13 0)
(580 1.74708e-13 0)
(580 3.70931e-13 0)
(580 4.15115e-13 0)
(580 2.96106e-13 0)
(580 8.75156e-14 0)
(580 1.31121e-13 0)
(580 3.84501e-13 0)
(580 4.68425e-13 0)
(580 2.70806e-13 0)
(580 5.65479e-14 0)
(580 -7.06255e-14 0)
(580 4.81057e-15 0)
(580 7.68709e-14 0)
(580 2.64407e-13 0)
(580 1.32943e-13 0)
(580 1.63971e-13 0)
(580 4.50508e-13 0)
(580 5.63767e-13 0)
(580 4.86789e-13 0)
(580 3.24488e-13 0)
(580 5.0349e-13 0)
(580 5.84118e-13 0)
(580 6.43133e-13 0)
(580 5.96451e-13 0)
(580 6.07496e-13 0)
(580 4.14297e-13 0)
(580 8.79823e-14 0)
(580 -1.25005e-13 0)
(580 -6.21473e-13 0)
(580 -8.56993e-13 0)
(580 -5.91624e-13 0)
(580 -5.13537e-13 0)
(580 -2.23513e-13 0)
(580 3.57823e-13 0)
(580 3.27367e-13 0)
(580 1.49402e-13 0)
(580 -1.45381e-13 0)
(580 -1.03437e-13 0)
(580 1.52827e-13 0)
(580 4.07852e-13 0)
(580 7.03404e-13 0)
(580 1.46989e-12 0)
(580 1.77952e-12 0)
(580 1.6638e-12 0)
(580 1.7046e-12 0)
(580 1.92926e-12 0)
(580 2.13944e-12 0)
(580 1.97602e-12 0)
(580 1.73784e-12 0)
(580 1.69803e-12 0)
(580 1.52746e-12 0)
(580 1.58152e-12 0)
(580 1.64824e-12 0)
(580 2.10796e-12 0)
(580 2.2585e-12 0)
(580 1.91773e-12 0)
(580 1.65565e-12 0)
(580 1.55934e-12 0)
(580 1.72752e-12 0)
(580 1.92776e-12 0)
(580 1.79279e-12 0)
(580 1.33614e-12 0)
(580 1.181e-12 0)
(580 9.08417e-13 0)
(580 7.68473e-13 0)
(580 4.30936e-13 0)
(580 -2.76448e-14 0)
(580 2.66272e-14 0)
(580 7.40076e-15 0)
(580 -1.63576e-13 0)
(580 -2.05583e-14 0)
(580 1.38736e-13 0)
(580 2.12325e-13 0)
(580 3.30162e-14 0)
(580 -1.09615e-13 0)
(580 7.01954e-14 0)
(580 2.33995e-13 0)
(580 2.13515e-13 0)
(580 -1.46877e-13 0)
(580 -1.49017e-13 0)
(580 1.30718e-13 0)
(580 1.93016e-13 0)
(580 2.01839e-13 0)
(580 3.26721e-13 0)
(580 3.24223e-13 0)
(580 5.39096e-13 0)
(580 5.66789e-13 0)
(580 2.7145e-13 0)
(580 -1.38068e-13 0)
(580 -3.83332e-13 0)
(580 -4.77235e-13 0)
(580 -2.16141e-13 0)
(580 -1.26938e-13 0)
(580 -1.97194e-13 0)
(580 -3.49141e-13 0)
(580 -3.19995e-13 0)
(580 -5.12887e-14 0)
(580 1.08236e-13 0)
(580 -4.0735e-14 0)
(580 9.01656e-14 0)
(580 2.47393e-13 0)
(580 2.60766e-13 0)
(580 2.92291e-13 0)
(580 4.52256e-13 0)
(580 5.40925e-13 0)
(580 5.35014e-13 0)
(580 2.41271e-13 0)
(580 -7.09302e-15 0)
(580 -9.14585e-15 0)
(580 -1.33527e-13 0)
(580 -1.39292e-13 0)
(580 -1.88452e-13 0)
(580 -1.05398e-15 0)
(580 3.55159e-13 0)
(580 7.3848e-13 0)
(580 9.67818e-13 0)
(580 1.18294e-12 0)
(580 9.94554e-13 0)
(580 4.38632e-13 0)
(580 6.27046e-13 0)
(580 6.2657e-13 0)
(580 1.06742e-12 0)
(580 1.24471e-12 0)
(580 1.32583e-12 0)
(580 1.43064e-12 0)
(580 1.44455e-12 0)
(580 1.72598e-12 0)
(580 1.65099e-12 0)
(580 1.51748e-12 0)
(580 1.43428e-12 0)
(580 1.42242e-12 0)
(580 1.60531e-12 0)
(580 1.79142e-12 0)
(580 1.70483e-12 0)
(580 1.97989e-12 0)
(580 2.06607e-12 0)
(580 1.76502e-12 0)
(580 1.93924e-12 0)
(580 1.75247e-12 0)
(580 1.76581e-12 0)
(580 1.49215e-12 0)
(580 1.40672e-12 0)
(580 1.03126e-12 0)
(580 9.60218e-13 0)
(580 8.19036e-13 0)
(580 6.06599e-13 0)
(580 2.89533e-13 0)
(580 -4.33025e-14 0)
(580 -8.86202e-14 0)
(580 -1.42922e-13 0)
(580 4.75924e-14 0)
(580 1.39808e-13 0)
(580 6.3051e-14 0)
(580 9.32033e-14 0)
(580 1.01844e-13 0)
(580 1.75884e-13 0)
(580 2.68708e-13 0)
(580 1.22173e-13 0)
(580 -5.52134e-14 0)
(580 -7.23683e-14 0)
(580 -1.05573e-13 0)
(580 1.45469e-13 0)
(580 2.19055e-13 0)
(580 4.4008e-13 0)
(580 4.13919e-13 0)
(580 3.48148e-13 0)
(580 1.31585e-13 0)
(580 -9.82507e-14 0)
(580 -1.58385e-13 0)
(580 -1.98495e-13 0)
(580 -1.99074e-13 0)
(580 -1.8483e-13 0)
(580 -9.712e-15 0)
(580 -7.62896e-14 0)
(580 -7.59846e-14 0)
(580 -4.84455e-14 0)
(580 -1.55559e-13 0)
(580 -6.19518e-13 0)
(580 -4.07157e-13 0)
(580 -2.31646e-13 0)
(580 -4.05592e-13 0)
(580 -2.81463e-13 0)
(580 -1.18045e-13 0)
(580 5.93417e-14 0)
(580 1.14184e-13 0)
(580 1.02577e-13 0)
(580 5.31522e-14 0)
(580 1.31483e-13 0)
(580 1.46211e-13 0)
(580 4.56267e-14 0)
(580 -2.99346e-14 0)
(580 3.9813e-14 0)
(580 2.66914e-13 0)
(580 4.08254e-13 0)
(580 8.49685e-13 0)
(580 1.03579e-12 0)
(580 1.26682e-12 0)
(580 1.3187e-12 0)
(580 1.14961e-12 0)
(580 1.09927e-12 0)
(580 1.15222e-12 0)
(580 1.23887e-12 0)
(580 1.40674e-12 0)
(580 1.32169e-12 0)
(580 1.07725e-12 0)
(580 6.86039e-13 0)
(580 8.2624e-13 0)
(580 8.60279e-13 0)
(580 9.43049e-13 0)
(580 9.54283e-13 0)
(580 9.89196e-13 0)
(580 1.32896e-12 0)
(580 1.58348e-12 0)
(580 1.4795e-12 0)
(580 1.37471e-12 0)
(580 1.55686e-12 0)
(580 1.70256e-12 0)
(580 1.64767e-12 0)
(580 1.49118e-12 0)
(580 1.1415e-12 0)
(580 8.20658e-13 0)
(580 7.27585e-13 0)
(580 5.7699e-13 0)
(580 7.20698e-13 0)
(580 7.70337e-13 0)
(580 9.09021e-13 0)
(580 8.48275e-13 0)
(580 -1.18169e-14 0)
(580 -2.45405e-13 0)
(580 2.29072e-14 0)
(580 -5.03093e-14 0)
(580 -1.52693e-13 0)
(580 -1.66668e-13 0)
(580 -1.71037e-14 0)
(580 2.53969e-13 0)
(580 2.03953e-13 0)
(580 2.8343e-13 0)
(580 1.02365e-13 0)
(580 1.76962e-14 0)
(580 7.14747e-15 0)
(580 1.19873e-13 0)
(580 3.4621e-13 0)
(580 3.2922e-13 0)
(580 1.30311e-13 0)
(580 -2.18975e-13 0)
(580 -5.28042e-13 0)
(580 -5.47936e-13 0)
(580 -4.13063e-13 0)
(580 -2.45205e-13 0)
(580 -9.51842e-15 0)
(580 1.30075e-13 0)
(580 -5.53438e-14 0)
(580 -2.1524e-13 0)
(580 -3.41195e-13 0)
(580 -2.56377e-13 0)
(580 -2.07359e-14 0)
(580 6.8947e-14 0)
(580 -2.65055e-13 0)
(580 -2.17656e-13 0)
(580 -3.25434e-13 0)
(580 -6.94617e-13 0)
(580 -7.34771e-13 0)
(580 -5.81799e-13 0)
(580 -3.42331e-13 0)
(580 -2.06021e-13 0)
(580 -3.52931e-13 0)
(580 -2.33777e-13 0)
(580 9.15779e-14 0)
(580 -3.16329e-14 0)
(580 -1.76284e-13 0)
(580 -7.46133e-14 0)
(580 2.41764e-13 0)
(580 3.8742e-13 0)
(580 5.88228e-13 0)
(580 1.03706e-12 0)
(580 1.34532e-12 0)
(580 1.56407e-12 0)
(580 1.8153e-12 0)
(580 1.55611e-12 0)
(580 1.3989e-12 0)
(580 1.64427e-12 0)
(580 1.54745e-12 0)
(580 1.34484e-12 0)
(580 1.1062e-12 0)
(580 1.11617e-12 0)
(580 1.02895e-12 0)
(580 8.86951e-13 0)
(580 5.46862e-13 0)
(580 5.27722e-13 0)
(580 5.75196e-13 0)
(580 8.50981e-13 0)
(580 1.25693e-12 0)
(580 1.13175e-12 0)
(580 9.91063e-13 0)
(580 1.02623e-12 0)
(580 1.14701e-12 0)
(580 1.27985e-12 0)
(580 1.01497e-12 0)
(580 8.17351e-13 0)
(580 3.34997e-13 0)
(580 3.47889e-13 0)
(580 3.74263e-13 0)
(580 2.77943e-13 0)
(580 3.39881e-13 0)
(580 4.56861e-13 0)
(580 5.58627e-13 0)
(580 7.59042e-13 0)
(580 1.074e-14 0)
(580 7.53288e-14 0)
(580 8.68381e-14 0)
(580 4.08768e-14 0)
(580 6.1233e-14 0)
(580 1.24731e-13 0)
(580 2.64787e-14 0)
(580 9.17236e-14 0)
(580 2.21008e-13 0)
(580 1.15002e-13 0)
(580 1.82692e-13 0)
(580 1.89451e-13 0)
(580 2.15147e-13 0)
(580 5.9322e-14 0)
(580 3.70491e-15 0)
(580 -1.82396e-13 0)
(580 -5.9515e-13 0)
(580 -9.31892e-13 0)
(580 -1.11152e-12 0)
(580 -1.02542e-12 0)
(580 -9.5385e-13 0)
(580 -6.63752e-13 0)
(580 -4.14236e-13 0)
(580 -2.03237e-13 0)
(580 -2.97763e-13 0)
(580 -7.66585e-13 0)
(580 -9.49926e-13 0)
(580 -8.97833e-13 0)
(580 -5.8848e-13 0)
(580 -3.76676e-13 0)
(580 -2.25481e-13 0)
(580 -4.16247e-13 0)
(580 -4.4273e-13 0)
(580 -5.18504e-13 0)
(580 -6.65881e-13 0)
(580 -4.86289e-13 0)
(580 -5.43737e-13 0)
(580 -4.92463e-13 0)
(580 -3.5384e-13 0)
(580 1.40588e-13 0)
(580 2.6704e-13 0)
(580 2.88638e-13 0)
(580 3.34999e-13 0)
(580 5.61505e-13 0)
(580 7.87149e-13 0)
(580 8.11948e-13 0)
(580 1.05079e-12 0)
(580 1.43845e-12 0)
(580 1.71687e-12 0)
(580 2.08239e-12 0)
(580 2.13698e-12 0)
(580 1.90738e-12 0)
(580 1.88705e-12 0)
(580 1.7822e-12 0)
(580 1.37948e-12 0)
(580 1.1352e-12 0)
(580 1.16854e-12 0)
(580 1.12806e-12 0)
(580 1.10941e-12 0)
(580 8.15471e-13 0)
(580 8.03888e-13 0)
(580 8.50144e-13 0)
(580 9.83192e-13 0)
(580 1.32533e-12 0)
(580 1.27081e-12 0)
(580 9.18862e-13 0)
(580 6.81234e-13 0)
(580 9.13456e-13 0)
(580 8.71101e-13 0)
(580 6.97938e-13 0)
(580 4.13712e-13 0)
(580 2.98725e-13 0)
(580 3.94565e-13 0)
(580 5.51309e-13 0)
(580 4.52435e-13 0)
(580 3.47635e-13 0)
(580 3.13005e-13 0)
(580 1.45363e-13 0)
(580 1.36218e-13 0)
(580 4.14955e-13 0)
(580 2.53531e-13 0)
(580 3.03518e-13 0)
(580 1.31364e-13 0)
(580 -1.31319e-13 0)
(580 -1.76429e-13 0)
(580 6.22671e-14 0)
(580 2.08172e-13 0)
(580 2.56599e-13 0)
(580 2.5322e-13 0)
(580 8.34405e-14 0)
(580 1.90011e-13 0)
(580 1.66446e-13 0)
(580 2.03897e-13 0)
(580 4.46947e-15 0)
(580 -2.57062e-13 0)
(580 -6.32901e-13 0)
(580 -5.71381e-13 0)
(580 -3.71401e-13 0)
(580 -1.48166e-13 0)
(580 -1.50992e-13 0)
(580 -3.38733e-14 0)
(580 1.07898e-13 0)
(580 -6.1012e-15 0)
(580 -3.29098e-13 0)
(580 -6.07252e-13 0)
(580 -6.10739e-13 0)
(580 -4.85515e-13 0)
(580 -5.8253e-13 0)
(580 -6.18575e-13 0)
(580 -5.50061e-13 0)
(580 -5.11304e-13 0)
(580 -5.40185e-13 0)
(580 -6.73802e-13 0)
(580 -4.4186e-13 0)
(580 -2.61702e-13 0)
(580 -2.97599e-14 0)
(580 4.9368e-14 0)
(580 3.44087e-14 0)
(580 2.92683e-13 0)
(580 6.79875e-13 0)
(580 6.38241e-13 0)
(580 8.19152e-13 0)
(580 1.17641e-12 0)
(580 1.23237e-12 0)
(580 1.09416e-12 0)
(580 1.20697e-12 0)
(580 1.13343e-12 0)
(580 1.12185e-12 0)
(580 1.25041e-12 0)
(580 1.46795e-12 0)
(580 1.24765e-12 0)
(580 1.38785e-12 0)
(580 1.5165e-12 0)
(580 1.40984e-12 0)
(580 1.13646e-12 0)
(580 8.67583e-13 0)
(580 9.67911e-13 0)
(580 9.33412e-13 0)
(580 1.01538e-12 0)
(580 8.97085e-13 0)
(580 8.76904e-13 0)
(580 9.89918e-13 0)
(580 1.17025e-12 0)
(580 1.16685e-12 0)
(580 8.75877e-13 0)
(580 8.35451e-13 0)
(580 9.70579e-13 0)
(580 1.13803e-12 0)
(580 1.12018e-12 0)
(580 7.45454e-13 0)
(580 7.27377e-13 0)
(580 8.02241e-13 0)
(580 1.1318e-12 0)
(580 1.19883e-12 0)
(580 9.30709e-13 0)
(580 8.28813e-13 0)
(580 5.22034e-13 0)
(580 2.02754e-13 0)
(580 6.3308e-15 0)
(580 3.62686e-13 0)
(580 -2.66159e-15 0)
(580 -9.28767e-14 0)
(580 -2.38463e-13 0)
(580 -1.53607e-13 0)
(580 -1.72051e-13 0)
(580 -2.51379e-14 0)
(580 2.72999e-13 0)
(580 4.77065e-13 0)
(580 4.91009e-13 0)
(580 4.0389e-13 0)
(580 3.24575e-13 0)
(580 1.03722e-13 0)
(580 5.57643e-14 0)
(580 1.15884e-13 0)
(580 7.54075e-14 0)
(580 1.06474e-13 0)
(580 2.62342e-13 0)
(580 6.41706e-13 0)
(580 1.03446e-12 0)
(580 1.04067e-12 0)
(580 1.00777e-12 0)
(580 9.79442e-13 0)
(580 8.02439e-13 0)
(580 3.91195e-13 0)
(580 2.64001e-13 0)
(580 1.98935e-13 0)
(580 1.44473e-13 0)
(580 -9.86491e-14 0)
(580 -4.1527e-13 0)
(580 -8.07442e-13 0)
(580 -8.15363e-13 0)
(580 -6.11146e-13 0)
(580 -2.43356e-13 0)
(580 1.46357e-14 0)
(580 2.1252e-14 0)
(580 -8.73539e-14 0)
(580 1.64591e-13 0)
(580 2.20207e-13 0)
(580 2.79766e-13 0)
(580 4.0941e-13 0)
(580 7.25416e-13 0)
(580 1.03668e-12 0)
(580 9.7041e-13 0)
(580 8.3698e-13 0)
(580 9.40517e-13 0)
(580 1.11165e-12 0)
(580 1.01576e-12 0)
(580 7.23703e-13 0)
(580 4.36633e-13 0)
(580 4.26403e-13 0)
(580 6.42713e-13 0)
(580 8.12133e-13 0)
(580 8.06777e-13 0)
(580 7.45088e-13 0)
(580 8.77576e-13 0)
(580 8.91213e-13 0)
(580 8.52449e-13 0)
(580 9.49276e-13 0)
(580 1.01224e-12 0)
(580 1.17386e-12 0)
(580 1.05084e-12 0)
(580 9.02731e-13 0)
(580 9.1845e-13 0)
(580 8.42425e-13 0)
(580 9.27288e-13 0)
(580 1.02262e-12 0)
(580 1.24866e-12 0)
(580 1.15464e-12 0)
(580 1.10136e-12 0)
(580 9.91124e-13 0)
(580 9.7775e-13 0)
(580 9.74377e-13 0)
(580 7.60872e-13 0)
(580 4.32454e-13 0)
(580 2.95389e-13 0)
(580 2.44358e-13 0)
(580 4.39169e-14 0)
(580 -4.83723e-14 0)
(580 -8.28765e-14 0)
(580 -2.55519e-13 0)
(580 -1.31689e-13 0)
(580 2.63571e-14 0)
(580 2.80199e-14 0)
(580 7.86483e-14 0)
(580 1.60923e-13 0)
(580 -4.59072e-14 0)
(580 8.64984e-14 0)
(580 2.25245e-14 0)
(580 3.9277e-13 0)
(580 4.62606e-13 0)
(580 4.37563e-13 0)
(580 3.49667e-13 0)
(580 1.5285e-13 0)
(580 1.32439e-13 0)
(580 6.01633e-14 0)
(580 1.47414e-13 0)
(580 3.2322e-13 0)
(580 5.30788e-13 0)
(580 7.3204e-13 0)
(580 5.84161e-13 0)
(580 5.05671e-13 0)
(580 5.66576e-13 0)
(580 5.52645e-13 0)
(580 5.48839e-13 0)
(580 7.2328e-13 0)
(580 6.99901e-13 0)
(580 6.07173e-13 0)
(580 4.16998e-13 0)
(580 2.48047e-13 0)
(580 -1.02479e-13 0)
(580 -2.63466e-14 0)
(580 1.05158e-14 0)
(580 1.84246e-13 0)
(580 3.48885e-13 0)
(580 2.38628e-13 0)
(580 1.55163e-13 0)
(580 2.51745e-13 0)
(580 4.02669e-13 0)
(580 4.2711e-13 0)
(580 4.78322e-13 0)
(580 5.57686e-13 0)
(580 6.47264e-13 0)
(580 6.92179e-13 0)
(580 5.66788e-13 0)
(580 6.75794e-13 0)
(580 6.02978e-13 0)
(580 7.65957e-13 0)
(580 8.7128e-13 0)
(580 8.66339e-13 0)
(580 1.07267e-12 0)
(580 1.32382e-12 0)
(580 1.66702e-12 0)
(580 1.4302e-12 0)
(580 1.18657e-12 0)
(580 1.04391e-12 0)
(580 1.30037e-12 0)
(580 1.30792e-12 0)
(580 1.20333e-12 0)
(580 9.6238e-13 0)
(580 9.68869e-13 0)
(580 1.11605e-12 0)
(580 1.03659e-12 0)
(580 8.76623e-13 0)
(580 8.56154e-13 0)
(580 6.74304e-13 0)
(580 6.20062e-13 0)
(580 4.45969e-13 0)
(580 3.34166e-13 0)
(580 3.54871e-13 0)
(580 5.05565e-13 0)
(580 5.93264e-13 0)
(580 5.46041e-13 0)
(580 3.2418e-13 0)
(580 1.59816e-13 0)
(580 3.09175e-15 0)
(580 1.65463e-13 0)
(580 3.26975e-13 0)
(580 3.92639e-13 0)
(580 4.76353e-13 0)
(580 7.51146e-14 0)
(580 -2.09079e-14 0)
(580 2.58544e-13 0)
(580 3.91317e-13 0)
(580 -2.69369e-14 0)
(580 -1.69566e-13 0)
(580 -1.96841e-13 0)
(580 -1.9593e-13 0)
(580 -3.32214e-13 0)
(580 -1.35055e-13 0)
(580 -2.26335e-14 0)
(580 -4.27698e-14 0)
(580 8.61819e-14 0)
(580 -1.56303e-14 0)
(580 1.21365e-13 0)
(580 1.85186e-13 0)
(580 2.54287e-13 0)
(580 4.07755e-13 0)
(580 3.38634e-13 0)
(580 3.01579e-13 0)
(580 2.10017e-13 0)
(580 2.54019e-13 0)
(580 4.31856e-13 0)
(580 5.58879e-13 0)
(580 4.23106e-13 0)
(580 4.56642e-13 0)
(580 5.17634e-13 0)
(580 5.63272e-13 0)
(580 7.00872e-13 0)
(580 7.37193e-13 0)
(580 6.03187e-13 0)
(580 3.6504e-13 0)
(580 2.49795e-13 0)
(580 1.49671e-13 0)
(580 1.97094e-14 0)
(580 1.42388e-13 0)
(580 3.47379e-13 0)
(580 5.51888e-13 0)
(580 6.56153e-13 0)
(580 8.50715e-13 0)
(580 7.77162e-13 0)
(580 5.83248e-13 0)
(580 1.89893e-13 0)
(580 3.36299e-13 0)
(580 6.0251e-13 0)
(580 6.5227e-13 0)
(580 2.99342e-13 0)
(580 5.48916e-13 0)
(580 5.67539e-13 0)
(580 8.54187e-13 0)
(580 9.89543e-13 0)
(580 7.63883e-13 0)
(580 1.01603e-12 0)
(580 1.26719e-12 0)
(580 1.11953e-12 0)
(580 1.13019e-12 0)
(580 1.21553e-12 0)
(580 1.22795e-12 0)
(580 1.24269e-12 0)
(580 1.11167e-12 0)
(580 7.93932e-13 0)
(580 7.83103e-13 0)
(580 6.09713e-13 0)
(580 4.634e-13 0)
(580 2.76662e-13 0)
(580 -4.92769e-14 0)
(580 -1.33173e-13 0)
(580 -2.26166e-13 0)
(580 -3.57787e-13 0)
(580 -2.399e-13 0)
(580 -4.69758e-14 0)
(580 -4.73743e-14 0)
(580 -6.32093e-14 0)
(580 4.23874e-14 0)
(580 1.88826e-13 0)
(580 6.24976e-13 0)
(580 5.81002e-13 0)
(580 6.91077e-13 0)