/*--------------------------------*- C++ -*----------------------------------*\
| =========                 |                                                 |
| \\      /  F ield         | OpenFOAM: The Open Source CFD Toolbox           |
|  \\    /   O peration     | Version:  2306                                  |
|   \\  /    A nd           | Website:  www.openfoam.com                      |
|    \\/     M anipulation  |                                                 |
\*---------------------------------------------------------------------------*/
FoamFile
{
    version     2.0;
    format      ascii;
    arch        "LSB;label=32;scalar=64";
    class       volScalarField;
    location    "3e-05";
    object      p;
}
// * * * * * * * * * * * * * * * * * * * * * * * * * * * * * * * * * * * * * //

dimensions      [1 -1 -2 0 0 0 0];

internalField   nonuniform List<scalar> 
9032
(
117315
118672
119457
119817
119845
119690
119431
119154
118855
118515
118132
117716
117283
116844
116404
115968
115535
115105
114685
114277
113883
113501
113123
112735
112330
111912
111500
111115
110763
110429
110094
109746
109378
108995
108611
108248
107931
107651
107377
107091
106783
106452
106118
105802
105523
105277
105037
104783
104507
104211
103912
103623
103350
103101
102871
102648
102417
102175
101924
101687
101471
101273
101112
100966
100852
100616
100591
100094
118417
119516
119949
120021
119896
119621
119327
119033
118697
118315
117905
117490
117077
116661
116238
115806
115365
114924
114493
114078
113679
113293
112910
112523
112129
111728
111331
110948
110586
110241
109903
109559
109205
108845
108493
108158
107838
107528
107223
106915
106602
106287
105979
105683
105397
105119
104850
104580
104307
104030
103759
103498
103254
103031
102810
102575
102330
102087
101845
101628
101430
101246
101081
100895
100745
100483
100468
100024
118919
119703
119895
119880
119730
119531
119299
118993
118611
118188
117760
117362
116980
116586
116172
115731
115274
114823
114395
113986
113590
113199
112810
112422
112035
111650
111267
110890
110521
110164
109818
109473
109125
108777
108440
108117
107798
107478
107158
106836
106516
106204
105905
105615
105328
105041
104756
104473
104201
103940
103687
103448
103225
103011
102789
102551
102305
102068
101836
101630
101432
101236
101040
100827
100651
100400
100375
100007
119448
119834
119898
119876
119736
119546
119271
118878
118423
117961
117529
117145
116781
116400
115994
115558
115103
114649
114212
113797
113398
113008
112621
112238
111861
111487
111114
110741
110368
110000
109642
109295
108959
108632
108312
107992
107667
107336
107003
106677
106364
106067
105782
105502
105217
104922
104619
104315
104039
103800
103583
103380
103180
102974
102748
102513
102277
102052
101829
101617
101390
101173
100958
100749
100556
100329
100267
100005
119706
119900
119889
119827
119674
119467
119171
118757
118299
117838
117411
117026
116658
116278
115877
115452
115009
114563
114127
113710
113310
112921
112537
112159
111786
111416
111051
110683
110310
109933
109560
109197
108849
108517
108200
107892
107582
107267
106943
106618
106306
106012
105729
105449
105165
104873
104572
104269
103983
103733
103517
103318
103120
102916
102703
102481
102252
102022
101782
101548
101305
101098
100884
100683
100477
100288
100163
99996.9
119784
119897
119913
119827
119643
119380
119041
118627
118183
117746
117322
116909
116504
116101
115698
115289
114866
114429
113988
113559
113151
112761
112381
112009
111646
111293
110942
110584
110211
109825
109433
109052
108694
108362
108056
107766
107475
107170
106839
106494
106163
105868
105598
105340
105086
104831
104562
104266
103954
103664
103430
103230
103037
102839
102636
102423
102190
101936
101672
101434
101223
101030
100816
100639
100444
100285
100075
99990.9
119928
120010
120006
119841
119591
119261
118879
118494
118112
117718
117286
116828
116371
115939
115537
115147
114744
114319
113881
113448
113037
112651
112282
111927
111582
111239
110885
110514
110123
109720
109314
108925
108564
108237
107936
107644
107340
107017
106682
106345
106028
105762
105539
105326
105108
104876
104613
104306
103957
103614
103343
103133
102939
102746
102546
102326
102077
101806
101557
101341
101146
100967
100779
100621
100437
100275
99993.3
99967.2
119844
120059
120106
119878
119539
119139
118752
118421
118105
117723
117266
116764
116262
115803
115399
115018
114628
114218
113792
113366
112955
112570
112206
111850
111495
111129
110748
110353
109960
109571
109179
108793
108433
108112
107815
107522
107225
106931
106639
106335
106027
105766
105546
105338
105119
104877
104604
104291
103923
103558
103263
103038
102839
102639
102428
102198
101954
101703
101469
101242
101075
100912
100761
100595
100425
100241
99916
99907.4
120077
120343
120209
119875
119480
119068
118731
118438
118099
117677
117184
116658
116146
115683
115291
114926
114543
114132
113706
113275
112848
112436
112045
111663
111284
110904
110523
110157
109817
109470
109100
108716
108358
108047
107759
107477
107199
106920
106627
106309
105982
105700
105460
105233
105008
104762
104498
104212
103884
103512
103179
102933
102726
102521
102310
102087
101851
101593
101365
101179
101020
100876
100746
100561
100378
100178
99836.5
99819.1
120474
120444
120133
119770
119376
118979
118683
118370
117987
117550
117067
116567
116074
115619
115219
114834
114431
114012
113588
113152
112703
112258
111834
111442
111081
110743
110414
110093
109764
109405
109013
108612
108255
107949
107670
107405
107144
106879
106574
106222
105867
105555
105279
105028
104797
104573
104344
104106
103841
103534
103203
102907
102664
102440
102219
101991
101756
101518
101318
101139
100982
100834
100699
100502
100302
100089
99758.1
99732
120758
120453
120027
119718
119364
118971
118640
118271
117856
117423
116971
116486
115983
115513
115099
114709
114310
113904
113494
113062
112600
112135
111715
111341
110993
110670
110356
110044
109709
109331
108906
108490
108160
107877
107618
107369
107115
106844
106535
106164
105760
105401
105109
104853
104612
104380
104155
103931
103708
103464
103183
102888
102622
102379
102141
101899
101662
101452
101262
101082
100918
100755
100605
100409
100204
99996.7
99698.2
99652.7
120954
120507
120016
119755
119397
118953
118551
118125
117704
117289
116846
116368
115870
115406
114984
114586
114191
113798
113398
112968
112512
112063
111651
111273
110925
110606
110299
109980
109633
109225
108779
108388
108064
107773
107507
107260
107001
106721
106415
106081
105727
105365
105019
104705
104434
104196
103979
103772
103556
103328
103078
102811
102546
102294
102050
101814
101596
101391
101195
101007
100831
100656
100492
100306
100107
99910.7
99645.6
99572.5
121672
120563
120135
119892
119457
118931
118436
117977
117566
117148
116702
116226
115732
115266
114840
114433
114035
113650
113259
112846
112425
112005
111593
111204
110846
110519
110208
109878
109516
109109
108676
108289
107963
107658
107371
107103
106835
106556
106267
105969
105669
105362
105043
104713
104389
104107
103860
103631
103412
103190
102953
102707
102459
102212
101971
101749
101539
101336
101136
100941
100754
100570
100394
100212
100013
99823.7
99579
99479.3
112293
119523
120203
119771
119313
118782
118296
117837
117415
116990
116548
116081
115602
115138
114701
114285
113881
113484
113082
112674
112267
111872
111481
111096
110728
110384
110063
109722
109353
108961
108570
108205
107871
107556
107254
106962
106677
106398
106123
105856
105595
105328
105045
104741
104411
104075
103776
103518
103278
103063
102848
102618
102380
102142
101910
101692
101483
101283
101085
100888
100694
100502
100311
100122
99914.1
99725
99494.3
99380.2
74027.3
117884
120801
119734
119234
118686
118198
117721
117282
116841
116397
115952
115503
115053
114606
114167
113738
113309
112879
112467
112080
111700
111326
110946
110574
110219
109890
109551
109189
108825
108474
108134
107804
107487
107178
106869
106558
106262
105987
105729
105492
105257
104995
104710
104404
104065
103731
103450
103201
102970
102759
102541
102314
102087
101864
101646
101437
101239
101045
100848
100645
100443
100234
100030
99818.6
99624.1
99407.1
99293.7
37318.8
90066.1
118760
119391
119019
118511
118093
117610
117133
116689
116251
115827
115406
114987
114557
114117
113672
113211
112740
112309
111919
111549
111187
110813
110438
110070
109721
109384
109036
108697
108374
108056
107744
107440
107134
106817
106488
106161
105861
105580
105328
105105
104872
104603
104321
104017
103697
103409
103163
102934
102725
102515
102293
102068
101842
101619
101402
101195
100996
100795
100583
100372
100157
99947.7
99734.5
99542.9
99342.1
99238.5
32045.2
44667.5
100859
119930
119207
118575
118133
117560
117038
116578
116142
115721
115289
114872
114464
114039
113603
113153
112697
112273
111886
111515
111149
110769
110367
109963
109591
109253
108933
108611
108291
107976
107666
107366
107066
106753
106430
106096
105760
105446
105164
104917
104691
104449
104187
103918
103640
103376
103139
102919
102713
102501
102278
102050
101818
101584
101352
101129
100919
100713
100500
100291
100083
99880.9
99680.6
99502.4
99311.7
99209.1
32000.1
32260.5
54574.9
109788
118227
118378
117961
117455
116957
116496
116060
115607
115128
114693
114297
113909
113513
113109
112707
112311
111932
111563
111194
110797
110348
109885
109490
109147
108833
108522
108195
107866
107542
107233
106941
106656
106352
106034
105700
105360
105046
104774
104533
104306
104069
103824
103574
103331
103097
102876
102663
102447
102230
102004
101771
101530
101286
101050
100828
100619
100414
100217
100025
99839.5
99659.2
99495.6
99302.4
99173.3
32000
32000.6
33006.6
68011.9
114223
118957
117719
117343
116957
116489
116003
115467
114951
114510
114118
113736
113360
113007
112656
112276
111920
111579
111218
110805
110319
109817
109408
109055
108731
108422
108084
107736
107397
107074
106778
106513
106250
105956
105654
105338
105008
104703
104448
104214
103980
103733
103486
103244
103008
102779
102557
102341
102129
101914
101691
101457
101212
100970
100743
100536
100344
100161
99983.6
99808.9
99635.1
99459
99250.7
99093.1
32000
32000
32003.9
35466.3
79944.8
114399
117169
117396
116980
116439
115869
115288
114817
114369
113952
113582
113218
112889
112537
112153
111786
111428
111070
110669
110199
109718
109323
108966
108632
108320
107975
107608
107245
106904
106595
106335
106110
105859
105587
105310
105008
104694
104417
104163
103904
103642
103387
103136
102888
102645
102413
102195
101990
101793
101590
101375
101142
100905
100680
100478
100290
100107
99926.4
99743.8
99559.4
99366.4
99145.8
98982.1
32000
32000
32000
32023.5
39084.4
88493.2
116998
117491
116771
116227
115604
115160
114770
114289
113794
113390
113025
112703
112352
111977
111582
111188
110817
110435
110016
109597
109228
108873
108541
108236
107900
107528
107149
106788
106469
106204
105987
105758
105502
105241
104955
104647
104360
104094
103821
103556
103295
103034
102776
102527
102289
102064
101859
101671
101483
101286
101066
100839
100624
100421
100220
100024
99833.4
99640.7
99445.1
99245
99042.1
98882.8
32000
32000
32000
32000
32078
43986.6
96580.4
115898
116447
116138
115613
115248
114790
114222
113666
113190
112783
112430
112118
111793
111398
110977
110562
110164
109797
109452
109109
108776
108461
108170
107853
107494
107128
106748
106396
106106
105851
105606
105355
105094
104808
104507
104229
103964
103710
103463
103216
102966
102713
102460
102214
101977
101761
101565
101378
101186
100974
100759
100552
100344
100135
99931.6
99734.4
99536.2
99342
99155.7
98968.4
98819.2
32000
32000
32000
32000
32000.1
32226.3
49823.3
100412
117220
116474
115744
115265
114694
114128
113588
113030
112571
112215
111928
111655
111265
110804
110353
109954
109609
109291
108974
108651
108336
108046
107759
107430
107088
106729
106356
106020
105733
105463
105199
104923
104623
104329
104061
103815
103587
103367
103144
102913
102676
102429
102180
101938
101709
101494
101288
101083
100874
100666
100465
100262
100055
99854
99657.5
99464.3
99278.4
99100.7
98925.7
98780.8
32000
32000
32000
32000
32000
32000.5
32546
54976.5
107058
114459
115257
115021
114509
114052
113555
112923
112461
112107
111805
111529
111139
110665
110208
109815
109468
109161
108856
108517
108179
107873
107603
107313
107004
106684
106343
106004
105694
105401
105110
104805
104484
104189
103921
103682
103464
103251
103038
102820
102598
102370
102135
101900
101661
101428
101200
100975
100764
100564
100372
100183
99986.3
99793.5
99604.6
99419.5
99233.9
99061.4
98889.2
98735.9
32000
32000
32000
32000
32000
32000
32001.5
33090.5
63063.6
104791
115904
114928
114488
114136
113501
112844
112424
112075
111780
111444
111014
110547
110113
109739
109404
109120
108798
108432
108055
107698
107402
107141
106864
106575
106277
105970
105672
105380
105079
104758
104436
104130
103849
103596
103363
103144
102930
102711
102489
102270
102057
101825
101588
101353
101114
100874
100659
100465
100279
100102
99925.3
99745.8
99559.7
99377
99183.3
99009.3
98828.8
98656.9
32000
32000
32000
32000
32000
32000
32000
32004.2
34182.2
64799.1
109644
114951
114490
113926
113220
112719
112357
112093
111826
111434
110970
110487
110081
109715
109388
109113
108788
108433
108045
107616
107247
106958
106688
106418
106139
105858
105580
105307
105027
104729
104428
104128
103833
103561
103303
103058
102820
102580
102347
102136
101947
101728
101495
101264
101025
100780
100563
100371
100187
100019
99856.2
99688
99500.2
99311.6
99110.5
98928
98739.5
98551.7
32000
32000
32000
32000
32000
32000
32000
32000
32011.1
34735.6
70026.2
107294
113852
113153
112820
112578
112362
112124
111808
111403
110913
110423
110004
109623
109310
109044
108728
108397
108041
107628
107222
106875
106554
106250
105958
105674
105398
105137
104897
104642
104360
104080
103796
103500
103226
102964
102706
102454
102222
102023
101843
101625
101395
101167
100932
100693
100481
100287
100100
99934.4
99777.5
99612.5
99424
99228.7
99027.5
98834.5
98646.3
98452.3
32000
32000
32000
32000
32000
32000
32000
32000
32000
32015.9
35728
71051.2
108971
113311
113053
112829
112504
112064
111623
111134
110660
110262
109872
109513
109220
108912
108577
108236
107899
107567
107229
106893
106548
106179
105825
105502
105191
104915
104688
104474
104218
103956
103689
103397
103114
102860
102610
102366
102141
101947
101758
101532
101298
101068
100839
100615
100409
100211
100023
99855.7
99697.3
99527.2
99343
99149.7
98952.7
98757.2
98571.9
98380.2
32000
32000
32000
32000
32000
32000
32000
32000
32000
32000
32026.8
36157
71282.3
107998
113628
113262
112261
111730
111176
110701
110342
110003
109707
109453
109128
108763
108352
107956
107631
107360
107122
106834
106517
106158
105756
105391
105053
104745
104502
104296
104047
103792
103532
103250
102984
102749
102521
102298
102089
101892
101680
101443
101209
100980
100758
100546
100339
100143
99957.4
99779.5
99608.5
99432.2
99254.4
99071.6
98884.4
98697.7
98521.3
98338.6
32000
32000
32000
32000
32000
32000
32000
32000
32000
32000
32000
32029.9
36185.6
71126.9
108266
112005
111796
111724
110949
110325
110000
109749
109533
109378
109056
108661
108153
107685
107338
107073
106899
106673
106380
106053
105665
105301
104972
104664
104408
104182
103920
103657
103385
103101
102855
102637
102433
102243
102054
101841
101600
101356
101119
100896
100678
100469
100268
100076
99887.5
99692.2
99506.5
99321.4
99146
98975.6
98802.7
98629.2
98466.3
98284.2
32000
32000
32000
32000
32000
32000
32000
32000
32000
32000
32000
32000
32031.6
36143.6
70946.2
104992
113294
112379
110957
110263
109877
109576
109486
109362
109028
108613
108058
107533
107148
106837
106648
106444
106171
105861
105512
105194
104898
104623
104381
104132
103856
103580
103290
103008
102771
102557
102370
102200
102000
101761
101512
101257
101021
100800
100586
100381
100188
99999
99800
99589.7
99392.9
99201.4
99025.4
98862.2
98706.2
98547.4
98395.1
98209.4
32000
32000
32000
32000
32000
32000
32000
32000
32000
32000
32000
32000
32000
32031.8
36049.6
66223.7
106692
110991
110554
110230
109809
109560
109499
109277
108938
108487
107965
107493
107095
106760
106505
106256
105972
105664
105352
105078
104821
104584
104348
104075
103790
103502
103208
102938
102698
102482
102305
102135
101910
101664
101404
101143
100914
100695
100483
100283
100100
99916
99709.1
99495
99292.6
99097.9
98920.1
98762.1
98618.6
98468.5
98319.9
98128.6
32000
32000
32000
32000
32000
32000
32000
32000
32000
32000
32000
32000
32000
32000
32028.9
35028.4
65233
101004
110795
110939
109956
109589
109452
109184
108765
108268
107840
107468
107126
106821
106494
106173
105861
105535
105235
104971
104737
104515
104262
103977
103690
103401
103121
102861
102616
102402
102226
102032
101794
101545
101281
101028
100803
100583
100373
100183
100016
99846.4
99644.6
99433.1
99228.2
99033.7
98854.1
98692.9
98549.1
98394.8
98238.1
98040.9
32000
32000
32000
32000
32000
32000
32000
32000
32000
32000
32000
32000
32000
32000
32000
32019.3
34527.9
60037.5
99353
110220
109970
109659
109360
108941
108442
107973
107617
107339
107091
106795
106466
106112
105777
105473
105200
104940
104695
104444
104160
103864
103571
103292
103022
102761
102519
102310
102127
101913
101674
101426
101171
100933
100709
100490
100286
100107
99949.5
99788.9
99603
99399.6
99196.7
99000.5
98817
98644.5
98486.1
98315.4
98146.9
97951.4
32000
32000
32000
32000
32000
32000
32000
32000
32000
32000
32000
32000
32000
32000
32000
32000
32013.7
33806.5
54658
96653
107445
109054
109139
108708
108238
107756
107395
107144
106914
106629
106320
105986
105677
105400
105153
104904
104638
104360
104064
103764
103481
103210
102941
102681
102439
102222
102018
101792
101552
101311
101078
100854
100631
100416
100219
100042
99882.3
99722.1
99551.6
99365.6
99164.4
98964.5
98776
98591
98414.6
98230.8
98058.3
97869.8
32000
32000
32000
32000
32000
32000
32000
32000
32000
32000
32000
32000
32000
32000
32000
32000
32000
32008.2
32989.7
51360.1
88520.6
108302
109403
108916
108089
107530
107173
106958
106714
106429
106126
105818
105523
105250
105006
104752
104483
104219
103942
103664
103400
103138
102874
102614
102365
102129
101900
101660
101426
101204
100992
100780
100564
100352
100151
99966.8
99794.2
99626.3
99462.1
99293.9
99100.7
98900.8
98709.6
98516.6
98331.4
98146
97976.2
97801.2
32000
32000
32000
32000
32000
32000
32000
32000
32000
32000
32000
32000
32000
32000
32000
32000
32000
32000
32003.4
32646.1
45008.6
83074.2
105594
108318
107891
107494
107177
106991
106672
106368
106037
105730
105427
105124
104832
104547
104267
104015
103767
103523
103278
103029
102780
102527
102274
102025
101772
101527
101299
101086
100886
100689
100486
100280
100077
99881.4
99695
99518.1
99350.1
99187.9
99011.1
98819.3
98628
98438.1
98254.1
98076.6
97914
97757.1
32000
32000
32000
32000
32000
32000
32000
32000
32000
32000
32000
32000
32000
32000
32000
32000
32000
32000
32000
32001.6
32273.9
40823.2
76131.7
101276
108048
107962
107755
107223
106748
106370
105997
105689
105454
105157
104813
104467
104141
103857
103597
103354
103115
102876
102646
102416
102168
101910
101652
101405
101176
100963
100765
100580
100391
100190
99980.2
99778
99585.2
99401
99224.4
99060.3
98897.2
98722.3
98540.8
98362.2
98187
98021.8
97864.2
97714.6
32000
32000
32000
32000
32000
32000
32000
32000
32000
32000
32000
32000
32000
32000
32000
32000
32000
32000
32000
32000
32000.4
32127.1
37805.2
64623.2
98002
107336
107649
107040
106237
105886
105709
105573
105471
105253
104913
104535
104155
103810
103501
103220
102954
102705
102481
102280
102056
101807
101557
101313
101085
100868
100662
100474
100288
100078
99869
99666.4
99471.1
99282.5
99099.6
98929.9
98771.8
98613.7
98451.3
98289.6
98126
97967.9
97807.7
97644.6
32000
32000
32000
32000
32000
32000
32000
32000
32000
32000
32000
32000
32000
32000
32000
32000
32000
32000
32000
32000
32000
32000.2
32052.4
34675.7
55207.7
93408.7
104522
105852
105721
105304
105154
105244
105259
105051
104692
104354
104037
103735
103436
103135
102841
102581
102352
102164
101962
101722
101481
101243
101018
100800
100584
100380
100176
99964.4
99760
99559.8
99367
99179.8
98994.9
98819.3
98658.1
98507.4
98363.6
98216.6
98063.7
97903.1
97738.6
97558.7
32000
32000
32000
32000
32000
32000
32000
32000
32000
32000
32000
32000
32000
32000
32000
32000
32000
32000
32000
32000
32000
32000
32000
32014.7
33078.9
48612.2
80341.3
104001
106980
105728
105212
104888
104809
104627
104332
104059
103823
103587
103326
103042
102738
102474
102239
102038
101842
101618
101388
101166
100952
100742
100524
100304
100079
99866.7
99665.6
99467.2
99276.8
99094.2
98914.7
98741
98578.1
98425.7
98284.6
98136.2
97984
97819.3
97656.2
97467.8
32000
32000
32000
32000
32000
32000
32000
32000
32000
32000
32000
32000
32000
32000
32000
32000
32000
32000
32000
32000
32000
32000
32000
32000
32003.7
32449.8
40342.3
69966.4
98565.2
104662
105520
105232
104662
104291
104036
103850
103650
103409
103160
102896
102618
102363
102131
101921
101720
101506
101290
101074
100860
100657
100441
100209
99980.1
99769.4
99572.7
99382
99199.7
99030.6
98870.6
98707.4
98537.1
98371.3
98211.3
98045.3
97883.8
97720.8
97566.2
97385.2
32000
32000
32000
32000
32000
32000
32000
32000
32000
32000
32000
32000
32000
32000
32000
32000
32000
32000
32000
32000
32000
32000
32000
32000
32000
32000.8
32110.4
35778.6
58710.5
88508.8
104476
105726
104917
104411
104222
103840
103507
103225
102974
102730
102500
102283
102069
101859
101640
101416
101199
100975
100747
100533
100318
100096
99880.7
99680.6
99489
99301.5
99127.5
98971.4
98831.9
98678.3
98495.7
98311.6
98131.5
97952.4
97780.9
97617.7
97471.6
97299.6
32000
32000
32000
32000
32000
32000
32000
32000
32000
32000
32000
32000
32000
32000
32000
32000
32000
32000
32000
32000
32000
32000
32000
32000
32000
32000
32000.1
32027
33549.5
46160.8
79936.4
98454.2
103374
104613
104300
103783
103353
103095
102818
102569
102354
102170
101977
101758
101526
101307
101104
100880
100641
100402
100183
99988.4
99798
99605.2
99417.3
99230.5
99053.3
98894
98760.7
98608.2
98419.5
98228
98039.9
97859.9
97683.1
97516.6
97370.9
97202
32000
32000
32000
32000
32000
32000
32000
32000
32000
32000
32000
32000
32000
32000
32000
32000
32000
32000
32000
32000
32000
32000
32000
32000
32000
32000
32000
32000
32005.9
32339.2
39443.4
64569.6
92451.7
103624
103825
103474
103318
103135
102669
102396
102183
101999
101828
101598
101372
101168
100979
100775
100536
100286
100060
99870.6
99708
99537.5
99354.7
99166.7
98978.4
98800.1
98646.4
98493.9
98307
98115.1
97932.2
97756.6
97584.8
97421.8
97272.8
97106.1
32000
32000
32000
32000
32000
32000
32000
32000
32000
32000
32000
32000
32000
32000
32000
32000
32000
32000
32000
32000
32000
32000
32000
32000
32000
32000
32000
32000
32000
32000.6
32086.7
34714.6
50242.3
83084.1
97833.9
103303
103902
103466
102645
102237
102026
101850
101684
101462
101242
101023
100823
100641
100427
100188
99960.5
99762.1
99598.9
99445.6
99271.9
99083.9
98887.3
98694.6
98520.8
98366.2
98193.6
98009.1
97832.7
97661.1
97496
97339.8
97191.9
97032.1
32000
32000
32000
32000
32000
32000
32000
32000
32000
32000
32000
32000
32000
32000
32000
32000
32000
32000
32000
32000
32000
32000
32000
32000
32000
32000
32000
32000
32000
32000
32000.1
32014.4
32593.5
41373.7
65580.2
92810.3
102200
102266
102137
102103
102043
101801
101607
101408
101168
100922
100715
100528
100325
100093
99868.1
99660.8
99478.9
99322.2
99164.7
98988
98796.2
98607.3
98431.3
98271.4
98108.4
97930.1
97755.7
97584.1
97421.9
97270
97128.8
96976.2
32000
32000
32000
32000
32000
32000
32000
32000
32000
32000
32000
32000
32000
32000
32000
32000
32000
32000
32000
32000
32000
32000
32000
32000
32000
32000
32000
32000
32000
32000
32000
32000
32001.3
32133.5
35024.6
50609
81112.3
96232
102704
102971
102580
101816
101511
101246
100968
100772
100605
100421
100221
99995.6
99784.2
99587.5
99406.2
99238.3
99077.5
98897.6
98703.8
98513.9
98336
98176.5
98026
97856.8
97683.9
97512.3
97353
97202.9
97067.1
96917.3
32000
32000
32000
32000
32000
32000
32000
32000
32000
32000
32000
32000
32000
32000
32000
32000
32000
32000
32000
32000
32000
32000
32000
32000
32000
32000
32000
32000
32000
32000
32000
32000
32000
32000.1
32017.3
32616.9
40731.8
62612.3
90169
99599.2
100965
101067
101138
100999
100766
100638
100512
100365
100162
99921.3
99705.9
99512.8
99335.2
99162
98986.8
98794.2
98596.8
98406.1
98227.7
98070
97928.1
97773.7
97604.2
97432.5
97275.6
97125.1
96990.3
96840.3
32000
32000
32000
32000
32000
32000
32000
32000
32000
32000
32000
32000
32000
32000
32000
32000
32000
32000
32000
32000
32000
32000
32000
32000
32000
32000
32000
32000
32000
32000
32000
32000
32000
32000
32000
32001.4
32117.8
34361.6
47601
75600.7
93301.5
101303
101814
101482
100823
100583
100337
100179
99997.2
99767.9
99534.8
99339.6
99169.2
99032.4
98887.5
98700
98507.7
98320.2
98141.9
97981.3
97838.4
97692.2
97530.2
97362.1
97208.4
97055.9
96916.4
96762.6
32000
32000
32000
32000
32000
32000
32000
32000
32000
32000
32000
32000
32000
32000
32000
32000
32000
32000
32000
32000
32000
32000
32000
32000
32000
32000
32000
32000
32000
32000
32000
32000
32000
32000
32000
32000
32000.1
32011.4
32407.8
38273.6
56282.7
83818.8
96410.9
100318
100666
100231
99922.9
99782.6
99756
99600.1
99377.3
99169.4
99011.7
98905.6
98819.9
98651.4
98462.3
98274.6
98096.4
97932.5
97783.4
97632.7
97468.3
97304.7
97145.7
96987.2
96840.6
96674.6
32000
32000
32000
32000
32000
32000
32000
32000
32000
32000
32000
32000
32000
32000
32000
32000
32000
32000
32000
32000
32000
32000
32000
32000
32000
32000
32000
32000
32000
32000
32000
32000
32000
32000
32000
32000
32000
32000
32000.7
32062.3
33262.8
42585.5
65969.2
87649.1
99637.5
100067
99533.7
99517.4
99737.6
99651.3
99426.7
99174.3
98990.5
98850.9
98759
98584.5
98378.5
98170.8
97990.2
97828.6
97677.6
97512.9
97343.4
97184.4
97024.8
96871.3
96724.6
96547.1
32000
32000
32000
32000
32000
32000
32000
32000
32000
32000
32000
32000
32000
32000
32000
32000
32000
32000
32000
32000
32000
32000
32000
32000
32000
32000
32000
32000
32000
32000
32000
32000
32000
32000
32000
32000
32000
32000
32000
32000
32004
32175.8
35163.8
47558.4
73766.5
90666.8
98213.2
100280
100214
99937.2
99499.1
99091
98803.6
98646.7
98533.3
98364.8
98162.6
97951.1
97780.3
97637.9
97503
97339.7
97182.3
97035
96885
96743.3
96599.4
96427.5
32000
32000
32000
32000
32000
32000
32000
32000
32000
32000
32000
32000
32000
32000
32000
32000
32000
32000
32000
32000
32000
32000
32000
32000
32000
32000
32000
32000
32000
32000
32000
32000
32000
32000
32000
32000
32000
32000
32000
32000
32000
32000.2
32017.9
32431.5
37294.1
53937.2
77558.5
94375.8
97202.8
98450.3
98807.1
98680.3
98382.4
98278.1
98246.1
98136.8
97957.5
97773.6
97619.2
97502.6
97393.4
97248.7
97103.8
96958.8
96808.1
96671.7
96531.7
96378.6
32000
32000
32000
32000
32000
32000
32000
32000
32000
32000
32000
32000
32000
32000
32000
32000
32000
32000
32000
32000
32000
32000
32000
32000
32000
32000
32000
32000
32000
32000
32000
32000
32000
32000
32000
32000
32000
32000
32000
32000
32000
32000
32000
32000.7
32046.3
33007.5
39509.4
59151.6
79990.4
95226.1
99101.2
98821.7
98401.2
98404.7
98470
98271.7
98018.1
97853.1
97695
97553.2
97404.3
97251.1
97115.1
96967.8
96807.2
96652.8
96507.4
96359.8
32000
32000
32000
32000
32000
32000
32000
32000
32000
32000
32000
32000
32000
32000
32000
32000
32000
32000
32000
32000
32000
32000
32000
32000
32000
32000
32000
32000
32000
32000
32000
32000
32000
32000
32000
32000
32000
32000
32000
32000
32000
32000
32000
32000
32000
32002.7
32091.7
33655
42174.3
62080
83991.1
93205.4
98209.8
99056.6
99048.3
98445.2
97947.7
97740.1
97633.6
97462
97275.4
97095.6
96961.8
96821.4
96668.2
96505.1
96363.8
96217.7
32000
32000
32000
32000
32000
32000
32000
32000
32000
32000
32000
32000
32000
32000
32000
32000
32000
32000
32000
32000
32000
32000
32000
32000
32000
32000
32000
32000
32000
32000
32000
32000
32000
32000
32000
32000
32000
32000
32000
32000
32000
32000
32000
32000
32000
32000
32000.1
32006.3
32172.8
34165
44706.1
63539.9
85980.3
93570
96775.2
97262.2
97089.9
96980.2
97106.4
97165.2
96990.8
96804.3
96667.5
96548
96442.1
96294.9
96178.5
96037.4
32000
32000
32000
32000
32000
32000
32000
32000
32000
32000
32000
32000
32000
32000
32000
32000
32000
32000
32000
32000
32000
32000
32000
32000
32000
32000
32000
32000
32000
32000
32000
32000
32000
32000
32000
32000
32000
32000
32000
32000
32000
32000
32000
32000
32000
32000
32000
32000
32000.2
32009.9
32270.5
34748.6
45694.5
65965
84230.9
96298.4
97097.7
96924.8
97039.8
97232
97056.2
96769.8
96573.6
96441
96383.9
96261.4
96145.7
96007.8
32000
32000
32000
32000
32000
32000
32000
32000
32000
32000
32000
32000
32000
32000
32000
32000
32000
32000
32000
32000
32000
32000
32000
32000
32000
32000
32000
32000
32000
32000
32000
32000
32000
32000
32000
32000
32000
32000
32000
32000
32000
32000
32000
32000
32000
32000
32000
32000
32000
32000
32000.4
32015
32308.6
35461.8
45959
67547.2
83477.3
93278.8
97510.1
98095.5
97745.8
97312.3
97143.7
96885.2
96658.1
96520.7
96404.6
96262.8
32000
32000
32000
32000
32000
32000
32000
32000
32000
32000
32000
32000
32000
32000
32000
32000
32000
32000
32000
32000
32000
32000
32000
32000
32000
32000
32000
32000
32000
32000
32000
32000
32000
32000
32000
32000
32000
32000
32000
32000
32000
32000
32000
32000
32000
32000
32000
32000
32000
32000
32000
32000
32000.5
32021.3
32347
35457.8
46502.3
65363
84906.9
91666.2
94878.3
96399.8
96932.2
96830.7
96435
96323.9
96293.3
96107.6
32000
32000
32000
32000
32000
32000
32000
32000
32000
32000
32000
32000
32000
32000
32000
32000
32000
32000
32000
32000
32000
32000
32000
32000
32000
32000
32000
32000
32000
32000
32000
32000
32000
32000
32000
32000
32000
32000
32000
32000
32000
32000
32000
32000
32000
32000
32000
32000
32000
32000
32000
32000
32000
32000
32000.5
32021.7
32384.7
35149.3
46103
63122.8
83224.3
92301.9
94351
95392.8
95551
95497.1
95498.4
95336.4
32000
32000
32000
32000
32000
32000
32000
32000
32000
32000
32000
32000
32000
32000
32000
32000
32000
32000
32000
32000
32000
32000
32000
32000
32000
32000
32000
32000
32000
32000
32000
32000
32000
32000
32000
32000
32000
32000
32000
32000
32000
32000
32000
32000
32000
32000
32000
32000
32000
32000
32000
32000
32000
32000
32000
32000
32000.6
32018.9
32347.2
34753.2
44285.6
62414.4
78323.8
92365.7
95933.5
95859.9
95724.7
95360.3