/*--------------------------------*- C++ -*----------------------------------*\
| =========                 |                                                 |
| \\      /  F ield         | OpenFOAM: The Open Source CFD Toolbox           |
|  \\    /   O peration     | Version:  2306                                  |
|   \\  /    A nd           | Website:  www.openfoam.com                      |
|    \\/     M anipulation  |                                                 |
\*---------------------------------------------------------------------------*/
FoamFile
{
    version     2.0;
    format      ascii;
    arch        "LSB;label=32;scalar=64";
    class       volScalarField;
    location    "3e-05";
    object      rho;
}
// * * * * * * * * * * * * * * * * * * * * * * * * * * * * * * * * * * * * * //

dimensions      [1 -3 0 0 0 0 0];

internalField   nonuniform List<scalar> 
9032
(
1.49167
1.50353
1.5102
1.51273
1.51253
1.51093
1.50831
1.50549
1.50249
1.49913
1.49544
1.4915
1.48748
1.48345
1.47941
1.47539
1.47137
1.46734
1.46339
1.45958
1.45591
1.45235
1.44876
1.44496
1.44086
1.43654
1.43222
1.42815
1.4244
1.42081
1.41721
1.41344
1.40947
1.40539
1.40135
1.39758
1.39431
1.39142
1.38855
1.38542
1.38189
1.37793
1.37381
1.36985
1.36627
1.36307
1.35996
1.35669
1.35308
1.34919
1.34521
1.3412
1.33724
1.33354
1.33028
1.32733
1.3244
1.32148
1.31853
1.31558
1.31274
1.30989
1.30715
1.30432
1.30159
1.2976
1.29496
1.28915
1.49878
1.50816
1.5121
1.51235
1.51113
1.50855
1.50577
1.50296
1.49975
1.49614
1.49233
1.48855
1.48483
1.48108
1.47726
1.4733
1.46922
1.46509
1.46106
1.45719
1.45351
1.44993
1.44631
1.44254
1.43855
1.4344
1.43021
1.42616
1.42233
1.41865
1.41502
1.41132
1.40749
1.40362
1.39987
1.39635
1.39305
1.38987
1.3867
1.38338
1.37981
1.37601
1.37215
1.36838
1.36473
1.36123
1.35787
1.35448
1.35092
1.34726
1.34356
1.33984
1.33617
1.33274
1.32958
1.32652
1.32345
1.32054
1.31771
1.31496
1.31232
1.30963
1.3069
1.30377
1.30076
1.29657
1.29406
1.28885
1.49743
1.50422
1.50669
1.50673
1.50561
1.504
1.50203
1.49935
1.49594
1.49216
1.48838
1.48493
1.48166
1.47825
1.47457
1.47058
1.46635
1.46214
1.45815
1.45439
1.45078
1.44722
1.44358
1.43981
1.43591
1.43191
1.42788
1.4239
1.42004
1.41631
1.41266
1.40898
1.40523
1.40149
1.39788
1.39446
1.39116
1.38789
1.38458
1.38116
1.37757
1.37385
1.37013
1.36646
1.36283
1.35928
1.35585
1.35243
1.34896
1.34554
1.34211
1.33868
1.3353
1.33206
1.32896
1.32587
1.32282
1.32004
1.3174
1.31485
1.31224
1.30952
1.30664
1.30341
1.30034
1.29637
1.29387
1.28949
1.49773
1.50205
1.50318
1.50333
1.50242
1.501
1.49872
1.49533
1.49129
1.48718
1.48335
1.47999
1.47683
1.47349
1.46984
1.46581
1.46152
1.45721
1.45309
1.44926
1.44564
1.4421
1.43849
1.43477
1.43094
1.42705
1.42316
1.4193
1.41547
1.41172
1.40803
1.40437
1.40075
1.3972
1.39375
1.39037
1.38703
1.38369
1.38033
1.37693
1.37347
1.36999
1.36652
1.36305
1.35957
1.35607
1.35261
1.34916
1.34582
1.34273
1.33977
1.33684
1.33387
1.3309
1.32791
1.32493
1.32208
1.31951
1.31704
1.31456
1.3118
1.309
1.30613
1.30315
1.30011
1.29656
1.29396
1.2907
1.49943
1.5021
1.50236
1.50206
1.50092
1.49922
1.49666
1.49295
1.48877
1.4845
1.48051
1.47692
1.47348
1.46993
1.46611
1.46194
1.45752
1.45304
1.44874
1.44472
1.44096
1.43733
1.43368
1.42996
1.42617
1.42236
1.4186
1.41487
1.41111
1.40733
1.40354
1.39977
1.39606
1.39249
1.38909
1.38583
1.38265
1.37947
1.37622
1.3729
1.36955
1.36624
1.36293
1.35965
1.35637
1.35309
1.34982
1.34656
1.34337
1.34037
1.3376
1.33493
1.33226
1.32955
1.32684
1.32414
1.32148
1.31892
1.31635
1.31379
1.31108
1.30856
1.30586
1.30316
1.30023
1.29734
1.29456
1.29226
1.50265
1.50371
1.50372
1.50289
1.50114
1.49868
1.49552
1.49161
1.48735
1.4831
1.47893
1.47487
1.47087
1.46688
1.46278
1.45848
1.45394
1.44926
1.44462
1.44022
1.43617
1.43236
1.42866
1.42496
1.4213
1.41769
1.41413
1.41053
1.40681
1.40296
1.39901
1.3951
1.39134
1.3878
1.38453
1.38146
1.37845
1.37536
1.37205
1.36856
1.36513
1.36193
1.35893
1.35604
1.35323
1.35048
1.34768
1.34465
1.34143
1.33829
1.33557
1.33311
1.3307
1.32826
1.32579
1.32327
1.32066
1.31795
1.31523
1.31278
1.31053
1.30834
1.30585
1.30354
1.30099
1.29873
1.2956
1.29417
1.50709
1.50713
1.50625
1.50422
1.50144
1.49808
1.49425
1.49037
1.4865
1.48248
1.4781
1.47348
1.46887
1.46444
1.46017
1.45584
1.45127
1.44646
1.44162
1.437
1.43274
1.42886
1.42521
1.42168
1.41824
1.41479
1.41125
1.40756
1.40367
1.39965
1.39557
1.39161
1.38788
1.38445
1.38127
1.3782
1.37507
1.37181
1.36846
1.36507
1.36181
1.35898
1.35653
1.35422
1.35189
1.3495
1.34686
1.34384
1.3404
1.33695
1.33404
1.33161
1.32931
1.32703
1.3247
1.32224
1.31961
1.31686
1.31437
1.3122
1.3102
1.30831
1.30626
1.30441
1.30224
1.30021
1.29674
1.29612
1.50785
1.5087
1.50775
1.50492
1.50108
1.49686
1.49279
1.48922
1.48582
1.4818
1.47712
1.47205
1.46698
1.46223
1.45783
1.45347
1.44891
1.44415
1.43935
1.43473
1.43045
1.42659
1.42304
1.41958
1.4161
1.41247
1.40867
1.40474
1.40082
1.39693
1.39299
1.38909
1.38541
1.38209
1.37899
1.37595
1.37289
1.3699
1.36697
1.36392
1.36081
1.35812
1.35579
1.35358
1.35132
1.3489
1.34623
1.34319
1.33962
1.336
1.33294
1.33047
1.32822
1.32598
1.3237
1.32133
1.31887
1.31638
1.31406
1.31182
1.31018
1.30859
1.30707
1.30537
1.30355
1.30156
1.298
1.29774
1.50893
1.50965
1.50742
1.50345
1.49902
1.49463
1.491
1.48772
1.48404
1.47966
1.47473
1.46956
1.46449
1.45975
1.45546
1.45125
1.4468
1.4421
1.43739
1.43283
1.4285
1.42448
1.42073
1.41709
1.41343
1.40969
1.40591
1.40222
1.39877
1.39528
1.39159
1.38775
1.38412
1.38092
1.37794
1.37504
1.3722
1.36936
1.36642
1.36324
1.36
1.35716
1.3547
1.35239
1.35013
1.34772
1.34517
1.34242
1.33925
1.3356
1.33227
1.32973
1.32756
1.32542
1.32326
1.32104
1.3187
1.31617
1.31393
1.31213
1.31063
1.30929
1.30809
1.30635
1.30458
1.30262
1.29918
1.29898
1.50765
1.50637
1.50289
1.49892
1.49481
1.49073
1.4875
1.48411
1.48014
1.47581
1.4712
1.4665
1.46182
1.45728
1.45304
1.44881
1.44437
1.43985
1.43537
1.43093
1.42653
1.42227
1.41826
1.41454
1.41109
1.40779
1.40451
1.40126
1.39792
1.39432
1.39046
1.38652
1.38299
1.37992
1.37709
1.37439
1.37173
1.36903
1.36597
1.36249
1.35898
1.35587
1.35312
1.35064
1.34838
1.34622
1.34405
1.3418
1.33927
1.33633
1.33315
1.33027
1.32788
1.32568
1.3235
1.32127
1.31897
1.31665
1.31471
1.313
1.31154
1.31018
1.30897
1.30719
1.30536
1.30339
1.30016
1.30007
1.50533
1.50205
1.49802
1.495
1.49152
1.48755
1.48403
1.48017
1.47604
1.47192
1.46779
1.46343
1.45883
1.45435
1.45021
1.44621
1.44211
1.43796
1.43383
1.42958
1.42515
1.42077
1.41683
1.41332
1.41001
1.40686
1.40374
1.40061
1.39726
1.39352
1.38942
1.38547
1.3823
1.37954
1.37698
1.37448
1.37193
1.36922
1.36617
1.36254
1.35861
1.35512
1.35225
1.34971
1.34736
1.34515
1.34305
1.34098
1.33891
1.33664
1.33401
1.33125
1.32874
1.32645
1.32419
1.32188
1.3196
1.31756
1.3157
1.31396
1.3124
1.31089
1.30953
1.30778
1.30594
1.30409
1.30115
1.30106
1.50393
1.50044
1.49633
1.4936
1.48987
1.4853
1.48113
1.47682
1.47273
1.46888
1.4649
1.46067
1.45622
1.452
1.44804
1.44417
1.44028
1.43642
1.43251
1.42839
1.42408
1.41989
1.41606
1.41254
1.40926
1.4062
1.4032
1.40009
1.39672
1.39284
1.38867
1.38501
1.38194
1.37918
1.37663
1.37423
1.3717
1.36898
1.366
1.36274
1.3593
1.3558
1.35244
1.34941
1.34683
1.3446
1.3426
1.34071
1.33875
1.33668
1.33441
1.33199
1.32957
1.32725
1.32499
1.32275
1.32065
1.31864
1.31671
1.31485
1.31315
1.3115
1.30999
1.30832
1.30653
1.30481
1.3022
1.30193
1.50929
1.50204
1.49707
1.49391
1.48912
1.48372
1.47882
1.4744
1.47052
1.46671
1.46274
1.45856
1.4542
1.45005
1.44618
1.44235
1.43853
1.43481
1.43104
1.42713
1.42319
1.41931
1.41553
1.41198
1.40868
1.40564
1.40272
1.39963
1.39626
1.39251
1.38851
1.3849
1.38184
1.37898
1.37626
1.37373
1.37118
1.36853
1.36576
1.3629
1.35999
1.357
1.35393
1.35082
1.3478
1.34519
1.34293
1.34086
1.33889
1.33689
1.33478
1.33259
1.33036
1.32813
1.3259
1.3238
1.32176
1.31975
1.31776
1.31583
1.31401
1.31225
1.31063
1.30899
1.3072
1.30555
1.30315
1.30265
1.43029
1.49639
1.49603
1.49143
1.48666
1.48146
1.47683
1.4726
1.46882
1.46507
1.4612
1.45712
1.45293
1.44885
1.44492
1.44108
1.43724
1.43341
1.42956
1.4257
1.42193
1.41834
1.41482
1.41139
1.40809
1.40502
1.40212
1.39903
1.39568
1.3921
1.38849
1.38509
1.38194
1.37898
1.37614
1.3734
1.37074
1.36814
1.36558
1.36308
1.36062
1.35808
1.35541
1.35256
1.34949
1.34639
1.34365
1.34131
1.33915
1.33722
1.33531
1.33326
1.33113
1.32897
1.32683
1.32476
1.32274
1.32077
1.3188
1.31687
1.31499
1.31318
1.31143
1.30973
1.30787
1.30622
1.30396
1.30332
1.07386
1.47587
1.49899
1.48957
1.48509
1.48025
1.47598
1.47184
1.46805
1.46419
1.46027
1.4564
1.45252
1.44864
1.44467
1.4406
1.43649
1.43231
1.42817
1.4243
1.42076
1.41737
1.41409
1.41077
1.40751
1.4044
1.4015
1.39849
1.39522
1.39188
1.3886
1.38541
1.38228
1.37927
1.37636
1.37349
1.37064
1.36795
1.36544
1.3631
1.36093
1.35877
1.35637
1.35374
1.35091
1.34778
1.3447
1.34212
1.33983
1.33774
1.33584
1.33387
1.33181
1.32975
1.32769
1.32565
1.32366
1.32174
1.31985
1.31796
1.31603
1.31417
1.31229
1.31048
1.3086
1.3069
1.30477
1.3041
0.685969
1.22382
1.47862
1.48704
1.4841
1.47996
1.47651
1.47226
1.46786
1.46369
1.45968
1.45596
1.45238
1.4488
1.44498
1.44089
1.43661
1.43216
1.42768
1.42371
1.42022
1.41698
1.41384
1.4106
1.40733
1.4041
1.40102
1.39801
1.39484
1.39169
1.38864
1.38561
1.38262
1.37973
1.37686
1.37395
1.37098
1.36808
1.36543
1.36294
1.36068
1.35869
1.3566
1.35415
1.35156
1.34874
1.34576
1.34307
1.34077
1.33864
1.33671
1.33477
1.33274
1.33069
1.32863
1.32658
1.32457
1.32263
1.32076
1.3189
1.31695
1.31504
1.31314
1.31131
1.30943
1.30774
1.30576
1.30512
0.620673
0.770932
1.32729
1.49417
1.4886
1.48348
1.47922
1.47342
1.46807
1.4635
1.4594
1.45569
1.45202
1.44843
1.44478
1.44084
1.43673
1.43253
1.42837
1.4246
1.42122
1.418
1.41478
1.41141
1.40782
1.4042
1.40084
1.39775
1.39477
1.39174
1.38871
1.3857
1.38275
1.37993
1.37717
1.37435
1.37151
1.36861
1.36571
1.36298
1.36051
1.35832
1.35627
1.35406
1.35164
1.34913
1.3465
1.344
1.34172
1.33961
1.33766
1.33566
1.33361
1.33155
1.32947
1.32739
1.32532
1.32332
1.32142
1.31957
1.31766
1.31582
1.31399
1.31223
1.31045
1.30886
1.30697
1.30627
0.620071
0.623513
0.881124
1.40813
1.48623
1.48371
1.47878
1.47302
1.46779
1.46332
1.45937
1.45542
1.45128
1.44747
1.44391
1.4404
1.43687
1.43335
1.42993
1.42655
1.42324
1.41994
1.41654
1.41285
1.40868
1.40441
1.40075
1.39754
1.39458
1.39164
1.38855
1.38547
1.38247
1.37964
1.37704
1.37458
1.37198
1.36929
1.36645
1.36351
1.36074
1.35829
1.35607
1.35395
1.3517
1.34937
1.34698
1.34463
1.34236
1.3402
1.33815
1.33613
1.33414
1.33215
1.33013
1.32807
1.32598
1.32394
1.32201
1.32017
1.31836
1.31662
1.31492
1.31327
1.31164
1.31013
1.30819
1.30718
0.62007
0.620079
0.633154
1.01541
1.45047
1.48746
1.4756
1.47162
1.46801
1.4639
1.45973
1.45514
1.45067
1.44676
1.44325
1.43992
1.4368
1.43397
1.43113
1.42786
1.4246
1.42132
1.41779
1.4138
1.40919
1.40448
1.40065
1.39734
1.39431
1.39143
1.38832
1.38516
1.38212
1.37929
1.37676
1.37457
1.37242
1.36998
1.36742
1.36465
1.36165
1.35881
1.35639
1.35413
1.35187
1.34948
1.34709
1.34475
1.34246
1.34024
1.33813
1.33613
1.33425
1.33242
1.33058
1.32867
1.32667
1.32465
1.32272
1.32092
1.31919
1.31753
1.31589
1.31426
1.31259
1.3109
1.3088
1.30747
0.62007
0.62007
0.620123
0.663603
1.13335
1.44475
1.46922
1.47216
1.46877
1.46436
1.45967
1.45483
1.45083
1.4469
1.44321
1.44003
1.43704
1.43442
1.43149
1.42799
1.4244
1.42076
1.41709
1.41312
1.40863
1.40414
1.40048
1.39722
1.39418
1.39137
1.3883
1.38508
1.38196
1.37907
1.3765
1.37439
1.3726
1.37051
1.36813
1.36562
1.36276
1.35971
1.35698
1.35449
1.35197
1.34945
1.34701
1.34463
1.34228
1.34001
1.33786
1.3359
1.33415
1.33256
1.33098
1.32933
1.3275
1.32556
1.32365
1.32185
1.3201
1.31833
1.31656
1.31474
1.31289
1.31099
1.30876
1.30734
0.62007
0.62007
0.62007
0.620386
0.706641
1.21304
1.4676
1.47408
1.46832
1.4639
1.45867
1.45514
1.45198
1.44783
1.44343
1.43986
1.43666
1.43384
1.43062
1.42699
1.42302
1.41898
1.41517
1.41138
1.40741
1.40362
1.40037
1.39728
1.3944
1.39178
1.38891
1.38574
1.38256
1.37954
1.37688
1.37467
1.37285
1.37083
1.36847
1.36595
1.36312
1.36004
1.35717
1.35453
1.35189
1.34938
1.34695
1.34456
1.34222
1.33998
1.33789
1.33596
1.33429
1.33285
1.33148
1.33002
1.32832
1.32645
1.32459
1.3227
1.32074
1.31874
1.31676
1.31475
1.31274
1.31072
1.30864
1.30726
0.62007
0.62007
0.62007
0.620071
0.621106
0.763409
1.2912
1.46208
1.46781
1.46504
1.46047
1.45753
1.45366
1.44863
1.44355
1.4391
1.43521
1.43175
1.42862
1.42533
1.42137
1.41718
1.41312
1.40936
1.40607
1.40316
1.40033
1.39762
1.39507
1.39272
1.39011
1.38711
1.38403
1.38078
1.37771
1.37512
1.37276
1.37042
1.36794
1.3653
1.3624
1.35935
1.35654
1.35393
1.35151
1.34924
1.34704
1.34486
1.34269
1.34054
1.33849
1.33657
1.33488
1.33341
1.33204
1.33059
1.32891
1.32709
1.32521
1.3232
1.32107
1.31892
1.3168
1.31467
1.31262
1.31071
1.30878
1.30754
0.62007
0.62007
0.62007
0.62007
0.620072
0.623059
0.828641
1.32965
1.47623
1.46962
1.46337
1.45914
1.45395
1.44862
1.4434
1.43794
1.43333
1.42967
1.42671
1.42397
1.42023
1.41593
1.41182
1.40833
1.40545
1.40295
1.40052
1.39804
1.39558
1.39328
1.39096
1.3882
1.38523
1.38203
1.37858
1.37539
1.37256
1.36984
1.36711
1.36426
1.36119
1.35822
1.35555
1.35318
1.35109
1.34917
1.34732
1.34545
1.34356
1.34158
1.33961
1.3377
1.33591
1.33425
1.33264
1.33099
1.32923
1.32739
1.32551
1.32348
1.32132
1.31914
1.31698
1.31487
1.31288
1.31106
1.30929
1.30817
0.62007
0.62007
0.62007
0.62007
0.62007
0.620077
0.627207
0.885306
1.38575
1.45433
1.46006
1.45772
1.4528
1.44821
1.44317
1.4369
1.43223
1.42867
1.42568
1.42306
1.41955
1.41547
1.41162
1.40842
1.40568
1.40336
1.40109
1.39849
1.3958
1.39328
1.39101
1.38847
1.38566
1.38265
1.37936
1.37602
1.37288
1.36985
1.36685
1.36372
1.36049
1.35756
1.35496
1.35275
1.35084
1.3491
1.34745
1.34582
1.34416
1.34245
1.34064
1.3388
1.33689
1.33498
1.33306
1.33112
1.32925
1.32742
1.32556
1.32364
1.32155
1.31945
1.31738
1.31537
1.31342
1.31169
1.31
1.30886
0.62007
0.62007
0.62007
0.62007
0.62007
0.62007
0.62009
0.634219
0.967538
1.36804
1.4658
1.45693
1.45257
1.44894
1.44268
1.43625
1.4321
1.42875
1.42603
1.42308
1.41947
1.41568
1.41222
1.40931
1.40676
1.40465
1.40217
1.39921
1.39604
1.39293
1.39026
1.38782
1.38516
1.38233
1.37937
1.37629
1.37325
1.37026
1.36721
1.36398
1.3608
1.35782
1.35517
1.35291
1.35096
1.34925
1.34767
1.3461
1.34448
1.34287
1.34126
1.33939
1.33741
1.33538
1.33327
1.33111
1.32914
1.32731
1.32548
1.32368
1.32181
1.31988
1.31789
1.31597
1.314
1.31233
1.31062
1.30937
0.62007
0.62007
0.62007
0.62007
0.62007
0.62007
0.62007
0.620128
0.647805
0.986533
1.40978
1.45733
1.45272
1.44705
1.44038
1.43572
1.43226
1.42987
1.42761
1.42435
1.42055
1.41663
1.41345
1.41063
1.40813
1.40603
1.40338
1.40035
1.39692
1.39301
1.38954
1.38673
1.38405
1.38136
1.37859
1.37579
1.37304
1.37033
1.36756
1.36463
1.36171
1.35884
1.35612
1.35373
1.3516
1.3497
1.34793
1.34616
1.34443
1.34284
1.34138
1.33955
1.33752
1.33545
1.33326
1.331
1.32897
1.32714
1.32535
1.32366
1.32198
1.32023
1.3183
1.31642
1.31447
1.3128
1.31108
1.30975
0.62007
0.62007
0.62007
0.62007
0.62007
0.62007
0.62007
0.62007
0.62022
0.654663
1.03845
1.39007
1.44733
1.44066
1.43749
1.43541
1.43363
1.4316
1.42894
1.42558
1.42148
1.4174
1.41402
1.411
1.40856
1.40645
1.40375
1.40081
1.39754
1.39368
1.3898
1.38639
1.38321
1.38022
1.37741
1.37472
1.37214
1.36969
1.36742
1.36498
1.36228
1.35964
1.35704
1.35443
1.35215
1.35008
1.34809
1.34617
1.3444
1.34285
1.34139
1.33949
1.33739
1.33529
1.33309
1.33086
1.32888
1.32705
1.32525
1.32364
1.32208
1.32044
1.3186
1.31674
1.31489
1.3132
1.31155
1.31019
0.62007
0.62007
0.62007
0.62007
0.62007
0.62007
0.62007
0.62007
0.62007
0.620284
0.666667
1.05015
1.40682
1.44342
1.44112
1.43917
1.43639
1.43262
1.42874
1.42443
1.42032
1.41698
1.41377
1.41085
1.4085
1.40593
1.40299
1.3999
1.39675
1.39359
1.3903
1.387
1.38362
1.38009
1.3768
1.3739
1.37117
1.36873
1.3667
1.3647
1.36227
1.35979
1.35733
1.35472
1.35232
1.35027
1.3483
1.3464
1.34463
1.34305
1.34145
1.33941
1.33722
1.33505
1.33288
1.33079
1.32888
1.32705
1.32529
1.32371
1.3222
1.32058
1.31886
1.3171
1.31537
1.31371
1.31213
1.31081
0.62007
0.62007
0.62007
0.62007
0.62007
0.62007
0.62007
0.62007
0.62007
0.62007
0.620429
0.671896
1.05345
1.39834
1.44789
1.44457
1.43577
1.43118
1.426
1.42147
1.41825
1.4154
1.41296
1.41093
1.40821
1.40504
1.4014
1.39782
1.39481
1.3922
1.38983
1.38698
1.38391
1.38055
1.37694
1.3738
1.37093
1.36831
1.36618
1.36431
1.36197
1.35954
1.35712
1.35456
1.35226
1.35032
1.34848
1.34671
1.34502
1.34339
1.34152
1.33933
1.33711
1.33492
1.33283
1.33086
1.32897
1.32719
1.32551
1.32387
1.32228
1.32065
1.31903
1.31742
1.31582
1.31429
1.31281
1.31156
0.62007
0.62007
0.62007
0.62007
0.62007
0.62007
0.62007
0.62007
0.62007
0.62007
0.620071
0.620469
0.672261
1.05205
1.40045
1.4347
1.4331
1.43234
1.42482
1.41886
1.41596
1.41383
1.41204
1.41082
1.40806
1.40458
1.40007
1.39586
1.39269
1.39017
1.38842
1.38616
1.38334
1.38036
1.37697
1.3739
1.37117
1.36857
1.36636
1.36433
1.36189
1.35943
1.35692
1.35433
1.35216
1.3503
1.34861
1.34707
1.34553
1.3437
1.34154
1.33927
1.33703
1.3349
1.33286
1.33094
1.32914
1.32744
1.32576
1.32399
1.32228
1.32058
1.319
1.31752
1.31607
1.31466
1.31333
1.31205
0.62007
0.62007
0.62007
0.62007
0.62007
0.62007
0.62007
0.62007
0.62007
0.62007
0.62007
0.620071
0.620493
0.671817
1.04922
1.37381
1.44771
1.439
1.42563
1.41943
1.41596
1.41319
1.41241
1.41135
1.40842
1.40482
1.39994
1.39525
1.39175
1.38878
1.38686
1.38482
1.38224
1.37948
1.37647
1.37381
1.37134
1.369
1.36691
1.36471
1.36221
1.3597
1.35707
1.35451
1.35239
1.35051
1.34892
1.34751
1.34582
1.34373
1.3415
1.33914
1.33693
1.33485
1.33287
1.33102
1.32932
1.32766
1.32589
1.32399
1.32219
1.32043
1.31884
1.31741
1.31611
1.31483
1.31359
1.31226
0.62007
0.62007
0.62007
0.62007
0.62007
0.62007
0.62007
0.62007
0.62007
0.62007
0.62007
0.62007
0.620071
0.620495
0.670564
1.00367
1.39043
1.4267
1.42283
1.42019
1.41634
1.41398
1.41341
1.41137
1.4084
1.40455
1.40003
1.39584
1.39217
1.38895
1.38643
1.38402
1.38139
1.37863
1.37592
1.37355
1.37134
1.3693
1.36726
1.36488
1.36238
1.35983
1.3572
1.35478
1.35262
1.3507
1.34917
1.34772
1.34578
1.34363
1.34128
1.3389
1.33678
1.33477
1.33285
1.33107
1.32947
1.32786
1.32601
1.32406
1.3222
1.3204
1.31878
1.3174
1.3162
1.31499
1.31377
1.31234
0.62007
0.62007
0.62007
0.62007
0.62007
0.62007
0.62007
0.62007
0.62007
0.62007
0.62007
0.62007
0.62007
0.620071
0.620457
0.658292
0.9929
1.33802
1.42614
1.42746
1.41838
1.41515
1.4139
1.41149
1.40783
1.40357
1.39989
1.39658
1.3934
1.39049
1.38739
1.38438
1.3815
1.37851
1.37576
1.37335
1.37123
1.36927
1.36708
1.36462
1.36215
1.35965
1.35719
1.35487
1.35268
1.35078
1.34926
1.34759
1.34551
1.3433
1.34093
1.33865
1.33662
1.33464
1.33277
1.33111
1.32968
1.32819
1.32637
1.32442
1.32252
1.32072
1.31909
1.31767
1.31646
1.31518
1.31385
1.31232
0.62007
0.62007
0.62007
0.62007
0.62007
0.62007
0.62007
0.62007
0.62007
0.62007
0.62007
0.62007
0.62007
0.62007
0.620071
0.620329
0.652047
0.938764
1.32339
1.42231
1.41983
1.41674
1.41386
1.41014
1.40587
1.40189
1.3988
1.3963
1.394
1.39124
1.38823
1.385
1.38189
1.379
1.37636
1.37387
1.37159
1.36934
1.36686
1.36431
1.36178
1.35936
1.35699
1.35467
1.35254
1.35072
1.34914
1.34728
1.34516
1.34295
1.34068
1.33855
1.33658
1.33466
1.33289
1.33135
1.33
1.32859
1.32692
1.32504
1.32316
1.32135
1.31968
1.31815
1.31677
1.3153
1.31383
1.31227
0.62007
0.62007
0.62007
0.62007
0.62007
0.62007
0.62007
0.62007
0.62007
0.62007
0.62007
0.62007
0.62007
0.62007
0.62007
0.62007
0.620255
0.643168
0.88203
1.30112
1.39834
1.41154
1.41239
1.40868
1.40481
1.4007
1.39748
1.39519
1.39311
1.39061
1.38794
1.38494
1.38201
1.37926
1.37678
1.37435
1.37189
1.36942
1.36683
1.36421
1.36172
1.35932
1.35694
1.35465
1.35256
1.35069
1.34893
1.34692
1.34477
1.3426
1.34053
1.33857
1.33665
1.33481
1.33313
1.33162
1.33024
1.32882
1.32728
1.32558
1.32374
1.32192
1.32021
1.31855
1.31699
1.31538
1.31384
1.31232
0.62007
0.62007
0.62007
0.62007
0.62007
0.62007
0.62007
0.62007
0.62007
0.62007
0.62007
0.62007
0.62007
0.62007
0.62007
0.62007
0.62007
0.620181
0.632893
0.845155
1.22444
1.40459
1.41566
1.41132
1.40409
1.39909
1.39578
1.39387
1.39187
1.38961
1.38709
1.38427
1.3814
1.37866
1.37622
1.3738
1.37138
1.36908
1.36664
1.36415
1.36176
1.35939
1.35705
1.35479
1.35266
1.35063
1.34861
1.34644
1.34431
1.34231
1.34044
1.33862
1.3368
1.33501
1.33331
1.33172
1.3302
1.3287
1.32721
1.3257
1.32396
1.32216
1.32044
1.31871
1.31706
1.31542
1.3139
1.3125
0.62007
0.62007
0.62007
0.62007
0.62007
0.62007
0.62007
0.62007
0.62007
0.62007
0.62007
0.62007
0.62007
0.62007
0.62007
0.62007
0.62007
0.62007
0.620116
0.628462
0.774457
1.1706
1.38161
1.40674
1.40285
1.39903
1.39594
1.39453
1.39211
1.38978
1.38694
1.38408
1.38113
1.3782
1.37544
1.37285
1.37036
1.36815
1.36593
1.36368
1.36141
1.35916
1.35697
1.35482
1.35266
1.35049
1.3482
1.34593
1.34382
1.3419
1.34017
1.33852
1.33683
1.3351
1.33335
1.33164
1.32997
1.32838
1.32688
1.32545
1.32388
1.32218
1.32046
1.31876
1.31712
1.31556
1.31412
1.31289
0.62007
0.62007
0.62007
0.62007
0.62007
0.62007
0.62007
0.62007
0.62007
0.62007
0.62007
0.62007
0.62007
0.62007
0.62007
0.62007
0.62007
0.62007
0.62007
0.620092
0.623664
0.726772
1.10402
1.34461
1.40487
1.40375
1.40181
1.39734
1.39362
1.39043
1.38702
1.38413
1.38193
1.37921
1.3761
1.37302
1.37013
1.36756
1.36514
1.36287
1.36065
1.35852
1.35656
1.35465
1.35254
1.35022
1.34784
1.34551
1.34338
1.34147
1.33978
1.33826
1.3367
1.33498
1.33313
1.33131
1.32956
1.32792
1.32637
1.32495
1.32354
1.32199
1.32037
1.31877
1.31721
1.31578
1.31441
1.31326
0.62007
0.62007
0.62007
0.62007
0.62007
0.62007
0.62007
0.62007
0.62007
0.62007
0.62007
0.62007
0.62007
0.62007
0.62007
0.62007
0.62007
0.62007
0.62007
0.62007
0.620076
0.621751
0.69127
0.989564
1.31381
1.39876
1.4026
1.39705
1.38978
1.38648
1.38478
1.3835
1.38265
1.3808
1.37782
1.37448
1.37106
1.36786
1.36494
1.36229
1.35987
1.35771
1.35586
1.35422
1.35231
1.35004
1.34768
1.34537
1.34326
1.34135
1.3396
1.33803
1.33646
1.33461
1.33271
1.33086
1.32909
1.32743
1.32585
1.3244
1.32304
1.32164
1.32018
1.31874
1.3173
1.31596
1.31459
1.31333
0.62007
0.62007
0.62007
0.62007
0.62007
0.62007
0.62007
0.62007
0.62007
0.62007
0.62007
0.62007
0.62007
0.62007
0.62007
0.62007
0.62007
0.62007
0.62007
0.62007
0.62007
0.620072
0.620764
0.653932
0.888502
1.26998
1.37549
1.38751
1.38577
1.38143
1.38018
1.38111
1.38135
1.37968
1.3766
1.37358
1.37065
1.3678
1.36497
1.36218
1.35955
1.35734
1.35546
1.35392
1.35215
1.34993
1.34765
1.34542
1.3434
1.3415
1.33966
1.33791
1.33612
1.33418
1.33229
1.33045
1.32873
1.32712
1.32554
1.32404
1.32263
1.32128
1.31997
1.31865
1.31732
1.31598
1.3146
1.31322
0.62007
0.62007
0.62007
0.62007
0.62007
0.62007
0.62007
0.62007
0.62007
0.62007
0.62007
0.62007
0.62007
0.62007
0.62007
0.62007
0.62007
0.62007
0.62007
0.62007
0.62007
0.62007
0.620071
0.620268
0.634025
0.814268
1.1461
1.37209
1.3978
1.38582
1.38133
1.37845
1.37804
1.3767
1.37423
1.37164
1.36932
1.36703
1.36459
1.36202
1.35937
1.35714
1.35517
1.35345
1.35167
1.34956
1.34741
1.34539
1.34353
1.34175
1.33988
1.33795
1.33588
1.33388
1.332
1.3302
1.32854
1.32701
1.32551
1.32402
1.32256
1.32115
1.31983
1.31847
1.31715
1.31579
1.31445
1.31301
0.62007
0.62007
0.62007
0.62007
0.62007
0.62007
0.62007
0.62007
0.62007
0.62007
0.62007
0.62007
0.62007
0.62007
0.62007
0.62007
0.62007
0.62007
0.62007
0.62007
0.62007
0.62007
0.62007
0.62007
0.62012
0.625923
0.720855
1.0439
1.32159
1.37622
1.38479
1.38247
1.37762
1.37454
1.37228
1.37042
1.36835
1.36597
1.36368
1.36138
1.35903
1.3569
1.3549
1.353
1.35111
1.34909
1.3471
1.34521
1.34343
1.34175
1.33989
1.33778
1.33561
1.33358
1.33173
1.33003
1.3285
1.32713
1.32583
1.32443
1.32287
1.32129
1.31975
1.3182
1.31678
1.31544
1.3142
1.31284
0.62007
0.62007
0.62007
0.62007
0.62007
0.62007
0.62007
0.62007
0.62007
0.62007
0.62007
0.62007
0.62007
0.62007
0.62007
0.62007
0.62007
0.62007
0.62007
0.62007
0.62007
0.62007
0.62007
0.62007
0.62007
0.620082
0.621527
0.667273
0.926231
1.22671
1.37495
1.38837
1.38091
1.37643
1.37461
1.37089
1.3676
1.36488
1.36261
1.36054
1.35867
1.3569
1.35503
1.35307
1.35096
1.34882
1.34685
1.34494
1.34309
1.34134
1.33949
1.33744
1.33535
1.33339
1.33158
1.32991
1.32848
1.32726
1.32618
1.32487
1.32317
1.32139
1.31963
1.31794
1.31641
1.31506
1.3139
1.31262
0.62007
0.62007
0.62007
0.62007
0.62007
0.62007
0.62007
0.62007
0.62007
0.62007
0.62007
0.62007
0.62007
0.62007
0.62007
0.62007
0.62007
0.62007
0.62007
0.62007
0.62007
0.62007
0.62007
0.62007
0.62007
0.62007
0.620072
0.620431
0.639917
0.788099
1.14353
1.32153
1.36709
1.37862
1.37568
1.37086
1.36684
1.36445
1.36186
1.35966
1.35792
1.35647
1.35482
1.35279
1.35055
1.34844
1.34659
1.34468
1.34273
1.34079
1.33891
1.33712
1.33526
1.33335
1.33155
1.32987
1.32842
1.32719
1.32618
1.32489
1.32314
1.32127
1.31943
1.31772
1.31612
1.31471
1.31353
1.31226
0.62007
0.62007
0.62007
0.62007
0.62007
0.62007
0.62007
0.62007
0.62007
0.62007
0.62007
0.62007
0.62007
0.62007
0.62007
0.62007
0.62007
0.62007
0.62007
0.62007
0.62007
0.62007
0.62007
0.62007
0.62007
0.62007
0.62007
0.620071
0.62015
0.624519
0.710572
0.988891
1.26548
1.37002
1.37181
1.36865
1.36727
1.36553
1.36101
1.35857
1.35687
1.35544
1.35406
1.35197
1.34981
1.34783
1.34607
1.34431
1.34234
1.34029
1.33838
1.33666
1.33507
1.33337
1.33161
1.32991
1.32834
1.32693
1.32573
1.32445
1.32272
1.32086
1.31907
1.3174
1.31583
1.31442
1.31317
1.31188
0.62007
0.62007
0.62007
0.62007
0.62007
0.62007
0.62007
0.62007
0.62007
0.62007
0.62007
0.62007
0.62007
0.62007
0.62007
0.62007
0.62007
0.62007
0.62007
0.62007
0.62007
0.62007
0.62007
0.62007
0.62007
0.62007
0.62007
0.62007
0.62007
0.620078
0.621215
0.654295
0.834116
1.17527
1.31702
1.36781
1.37331
1.36909
1.36133
1.35778
1.35609
1.35467
1.35328
1.35131
1.34925
1.34715
1.34526
1.34365
1.34187
1.3399
1.338
1.33624
1.33468
1.33317
1.33149
1.32977
1.32808
1.3265
1.3251
1.3238
1.32223
1.32047
1.31877
1.31714
1.31563
1.31426
1.31298
1.3117
0.62007
0.62007
0.62007
0.62007
0.62007
0.62007
0.62007
0.62007
0.62007
0.62007
0.62007
0.62007
0.62007
0.62007
0.62007
0.62007
0.62007
0.62007
0.62007
0.62007
0.62007
0.62007
0.62007
0.62007
0.62007
0.62007
0.62007
0.62007
0.62007
0.62007
0.620071
0.620263
0.627797
0.73285
1
1.27002
1.35852
1.35854
1.35747
1.3573
1.35686
1.3547
1.35304
1.35136
1.34916
1.3468
1.34484
1.34317
1.34146
1.33954
1.33766
1.33584
1.33413
1.33261
1.33109
1.32947
1.3278
1.32622
1.32477
1.32341
1.32195
1.32029
1.31864
1.31704
1.31555
1.31419
1.31293
1.31167
0.62007
0.62007
0.62007
0.62007
0.62007
0.62007
0.62007
0.62007
0.62007
0.62007
0.62007
0.62007
0.62007
0.62007
0.62007
0.62007
0.62007
0.62007
0.62007
0.62007
0.62007
0.62007
0.62007
0.62007
0.62007
0.62007
0.62007
0.62007
0.62007
0.62007
0.62007
0.62007
0.620088
0.621825
0.658074
0.838451
1.15714
1.30327
1.36373
1.36608
1.36239
1.35528
1.35271
1.35039
1.34775
1.34588
1.34435
1.34274
1.34106
1.33918
1.33741
1.33568
1.33398
1.33237
1.33084
1.32919
1.32749
1.32588
1.32437
1.323
1.32167
1.32012
1.31853
1.31695
1.31549
1.31411
1.31287
1.31161
0.62007
0.62007
0.62007
0.62007
0.62007
0.62007
0.62007
0.62007
0.62007
0.62007
0.62007
0.62007
0.62007
0.62007
0.62007
0.62007
0.62007
0.62007
0.62007
0.62007
0.62007
0.62007
0.62007
0.62007
0.62007
0.62007
0.62007
0.62007
0.62007
0.62007
0.62007
0.62007
0.62007
0.620072
0.620301
0.628097
0.725524
0.969145
1.24613
1.33523
1.34811
1.34894
1.34981
1.34851
1.34628
1.34514
1.34407
1.34284
1.34111
1.33906
1.33722
1.3355
1.33384
1.33218
1.33053
1.32877
1.32704
1.3254
1.32386
1.32247
1.32122
1.31984
1.31831
1.31675
1.31531
1.31391
1.31266
1.31137
0.62007
0.62007
0.62007
0.62007
0.62007
0.62007
0.62007
0.62007
0.62007
0.62007
0.62007
0.62007
0.62007
0.62007
0.62007
0.62007
0.62007
0.62007
0.62007
0.62007
0.62007
0.62007
0.62007
0.62007
0.62007
0.62007
0.62007
0.62007
0.62007
0.62007
0.62007
0.62007
0.62007
0.62007
0.62007
0.620089
0.621619
0.649972
0.804666
1.103
1.27653
1.35207
1.35691
1.35373
1.34741
1.34522
1.34296
1.3416
1.34005
1.33813
1.33612
1.33437
1.33278
1.33148
1.33014
1.32844
1.32675
1.32512
1.32355
1.32212
1.32085
1.31956
1.31812
1.3166
1.31518
1.31376
1.31245
1.31112
0.62007
0.62007
0.62007
0.62007
0.62007
0.62007
0.62007
0.62007
0.62007
0.62007
0.62007
0.62007
0.62007
0.62007
0.62007
0.62007
0.62007
0.62007
0.62007
0.62007
0.62007
0.62007
0.62007
0.62007
0.62007
0.62007
0.62007
0.62007
0.62007
0.62007
0.62007
0.62007
0.62007
0.62007
0.62007
0.62007
0.620072
0.620224
0.625397
0.696814
0.901178
1.18536
1.30648
1.34392
1.34655
1.34237
1.33944
1.33831
1.33831
1.33707
1.33515
1.33327
1.33179
1.3308
1.33003
1.32852
1.32686
1.3252
1.32361
1.32214
1.32081
1.31949
1.31803
1.31655
1.31507
1.31358
1.31221
1.31077
0.62007
0.62007
0.62007
0.62007
0.62007
0.62007
0.62007
0.62007
0.62007
0.62007
0.62007
0.62007
0.62007
0.62007
0.62007
0.62007
0.62007
0.62007
0.62007
0.62007
0.62007
0.62007
0.62007
0.62007
0.62007
0.62007
0.62007
0.62007
0.62007
0.62007
0.62007
0.62007
0.62007
0.62007
0.62007
0.62007
0.62007
0.62007
0.62008
0.620893
0.636291
0.747478
1.00453
1.22326
1.33752
1.3418
1.33652
1.33638
1.3387
1.33803
1.33609
1.33378
1.33205
1.33077
1.32998
1.32843
1.32658
1.32471
1.32308
1.32163
1.32029
1.31883
1.31731
1.31586
1.31436
1.31293
1.31157
1.31004
0.62007
0.62007
0.62007
0.62007
0.62007
0.62007
0.62007
0.62007
0.62007
0.62007
0.62007
0.62007
0.62007
0.62007
0.62007
0.62007
0.62007
0.62007
0.62007
0.62007
0.62007
0.62007
0.62007
0.62007
0.62007
0.62007
0.62007
0.62007
0.62007
0.62007
0.62007
0.62007
0.62007
0.62007
0.62007
0.62007
0.62007
0.62007
0.62007
0.620071
0.620125
0.62238
0.659719
0.804386
1.0854
1.25326
1.32464
1.34415
1.34361
1.34121
1.33719
1.33333
1.33065
1.32928
1.32834
1.32684
1.325
1.32307
1.32153
1.32028
1.3191
1.31766
1.31625
1.31488
1.31347
1.31215
1.31084
1.30938
0.62007
0.62007
0.62007
0.62007
0.62007
0.62007
0.62007
0.62007
0.62007
0.62007
0.62007
0.62007
0.62007
0.62007
0.62007
0.62007
0.62007
0.62007
0.62007
0.62007
0.62007
0.62007
0.62007
0.62007
0.62007
0.62007
0.62007
0.62007
0.62007
0.62007
0.62007
0.62007
0.62007
0.62007
0.62007
0.62007
0.62007
0.62007
0.62007
0.62007
0.62007
0.620073
0.620309
0.625704
0.685409
0.875545
1.12466
1.28867
1.3159
1.32767
1.33098
1.32979
1.32706
1.32623
1.32605
1.32512
1.32348
1.32179
1.32042
1.31944
1.31853