/*--------------------------------*- C++ -*----------------------------------*\
| =========                 |                                                 |
| \\      /  F ield         | OpenFOAM: The Open Source CFD Toolbox           |
|  \\    /   O peration     | Version:  2306                                  |
|   \\  /    A nd           | Website:  www.openfoam.com                      |
|    \\/     M anipulation  |                                                 |
\*---------------------------------------------------------------------------*/
FoamFile
{
    version     2.0;
    format      ascii;
    arch        "LSB;label=32;scalar=64";
    class       volVectorField;
    location    "3e-05";
    object      U;
}
// * * * * * * * * * * * * * * * * * * * * * * * * * * * * * * * * * * * * * //

dimensions      [0 1 -1 0 0 0 0];

internalField   nonuniform List<vector> 
9032
(
(348.002 149.768 0)
(345.425 147.992 0)
(344.13 146.769 0)
(343.78 146.19 0)
(343.804 146.048 0)
(344.07 146.032 0)
(344.506 146.145 0)
(344.991 146.312 0)
(345.557 146.518 0)
(346.199 146.781 0)
(346.892 147.076 0)
(347.611 147.377 0)
(348.339 147.67 0)
(349.05 147.974 0)
(349.725 148.292 0)
(350.362 148.597 0)
(350.991 148.867 0)
(351.66 149.12 0)
(352.396 149.393 0)
(353.167 149.703 0)
(353.923 150.028 0)
(354.636 150.334 0)
(355.306 150.609 0)
(355.938 150.858 0)
(356.54 151.103 0)
(357.122 151.362 0)
(357.695 151.641 0)
(358.273 151.919 0)
(358.862 152.173 0)
(359.446 152.405 0)
(359.993 152.621 0)
(360.473 152.824 0)
(360.873 153.019 0)
(361.199 153.208 0)
(361.488 153.396 0)
(361.8 153.589 0)
(362.185 153.785 0)
(362.639 153.978 0)
(363.112 154.163 0)
(363.557 154.34 0)
(363.932 154.513 0)
(364.232 154.658 0)
(364.458 154.785 0)
(364.636 154.899 0)
(364.821 154.988 0)
(365.056 155.047 0)
(365.34 155.085 0)
(365.621 155.117 0)
(365.85 155.162 0)
(366.011 155.229 0)
(366.118 155.308 0)
(366.189 155.392 0)
(366.231 155.468 0)
(366.264 155.522 0)
(366.302 155.561 0)
(366.349 155.58 0)
(366.426 155.593 0)
(366.499 155.614 0)
(366.538 155.642 0)
(366.547 155.671 0)
(366.524 155.692 0)
(366.484 155.719 0)
(366.432 155.741 0)
(366.447 155.748 0)
(366.368 155.715 0)
(366.422 155.703 0)
(365.932 155.459 0)
(365.898 155.638 0)
(347.98 148.436 0)
(345.889 146.985 0)
(344.752 146.16 0)
(344.341 146.105 0)
(344.25 146.191 0)
(344.446 146.409 0)
(344.743 146.581 0)
(345.146 146.729 0)
(345.676 146.966 0)
(346.298 147.316 0)
(346.961 147.696 0)
(347.646 148.008 0)
(348.354 148.253 0)
(349.051 148.498 0)
(349.723 148.787 0)
(350.369 149.098 0)
(351.015 149.389 0)
(351.691 149.657 0)
(352.403 149.935 0)
(353.131 150.242 0)
(353.839 150.561 0)
(354.514 150.858 0)
(355.161 151.118 0)
(355.79 151.347 0)
(356.403 151.566 0)
(357 151.808 0)
(357.578 152.086 0)
(358.138 152.377 0)
(358.689 152.641 0)
(359.228 152.87 0)
(359.736 153.07 0)
(360.193 153.251 0)
(360.585 153.429 0)
(360.921 153.607 0)
(361.236 153.792 0)
(361.571 154.007 0)
(361.955 154.245 0)
(362.383 154.474 0)
(362.815 154.682 0)
(363.213 154.869 0)
(363.554 155.034 0)
(363.831 155.179 0)
(364.05 155.32 0)
(364.249 155.446 0)
(364.471 155.533 0)
(364.735 155.573 0)
(365.01 155.582 0)
(365.261 155.565 0)
(365.482 155.544 0)
(365.657 155.549 0)
(365.79 155.586 0)
(365.887 155.653 0)
(365.948 155.745 0)
(365.989 155.83 0)
(366.041 155.88 0)
(366.106 155.877 0)
(366.189 155.86 0)
(366.246 155.857 0)
(366.271 155.879 0)
(366.271 155.944 0)
(366.265 156.033 0)
(366.243 156.129 0)
(366.201 156.175 0)
(366.181 156.151 0)
(366.045 156.059 0)
(366.032 156.02 0)
(365.562 155.7 0)
(365.022 156.076 0)
(346.446 147.779 0)
(345.072 147.117 0)
(344.372 146.863 0)
(344.155 146.864 0)
(344.259 146.808 0)
(344.517 146.735 0)
(344.894 146.675 0)
(345.402 146.735 0)
(345.996 146.997 0)
(346.638 147.383 0)
(347.286 147.74 0)
(347.971 147.979 0)
(348.671 148.163 0)
(349.346 148.385 0)
(349.997 148.686 0)
(350.632 149.026 0)
(351.272 149.337 0)
(351.939 149.594 0)
(352.624 149.826 0)
(353.293 150.074 0)
(353.926 150.343 0)
(354.533 150.609 0)
(355.133 150.855 0)
(355.738 151.082 0)
(356.345 151.304 0)
(356.94 151.543 0)
(357.501 151.809 0)
(358.017 152.073 0)
(358.502 152.305 0)
(358.96 152.51 0)
(359.387 152.696 0)
(359.774 152.883 0)
(360.113 153.09 0)
(360.427 153.308 0)
(360.761 153.522 0)
(361.143 153.722 0)
(361.557 153.907 0)
(361.964 154.087 0)
(362.338 154.265 0)
(362.667 154.444 0)
(362.949 154.629 0)
(363.192 154.825 0)
(363.429 155.007 0)
(363.688 155.14 0)
(363.97 155.209 0)
(364.251 155.227 0)
(364.509 155.218 0)
(364.736 155.199 0)
(364.936 155.206 0)
(365.099 155.268 0)
(365.231 155.38 0)
(365.334 155.53 0)
(365.421 155.692 0)
(365.516 155.818 0)
(365.63 155.871 0)
(365.745 155.861 0)
(365.836 155.867 0)
(365.89 155.905 0)
(365.928 156.005 0)
(365.952 156.149 0)
(365.996 156.277 0)
(366.01 156.402 0)
(366.023 156.429 0)
(365.994 156.434 0)
(365.839 156.382 0)
(365.742 156.459 0)
(365.32 156.188 0)
(364.846 156.635 0)
(344.66 147.348 0)
(343.867 146.709 0)
(343.567 146.541 0)
(343.508 146.555 0)
(343.691 146.569 0)
(343.983 146.56 0)
(344.44 146.589 0)
(345.056 146.766 0)
(345.732 147.094 0)
(346.38 147.523 0)
(346.988 147.867 0)
(347.626 148.082 0)
(348.276 148.25 0)
(348.913 148.482 0)
(349.544 148.8 0)
(350.172 149.137 0)
(350.799 149.443 0)
(351.421 149.717 0)
(352.025 149.983 0)
(352.598 150.26 0)
(353.142 150.539 0)
(353.682 150.792 0)
(354.238 151.012 0)
(354.809 151.224 0)
(355.386 151.446 0)
(355.95 151.686 0)
(356.475 151.944 0)
(356.949 152.195 0)
(357.38 152.429 0)
(357.767 152.657 0)
(358.117 152.877 0)
(358.437 153.089 0)
(358.738 153.291 0)
(359.054 153.469 0)
(359.419 153.623 0)
(359.826 153.766 0)
(360.243 153.91 0)
(360.635 154.07 0)
(360.98 154.25 0)
(361.278 154.44 0)
(361.548 154.627 0)
(361.819 154.802 0)
(362.12 154.947 0)
(362.462 155.041 0)
(362.82 155.092 0)
(363.148 155.122 0)
(363.428 155.135 0)
(363.664 155.142 0)
(363.867 155.195 0)
(364.064 155.302 0)
(364.255 155.46 0)
(364.445 155.649 0)
(364.645 155.821 0)
(364.867 155.916 0)
(365.092 155.931 0)
(365.286 155.93 0)
(365.426 155.996 0)
(365.531 156.086 0)
(365.612 156.211 0)
(365.668 156.328 0)
(365.751 156.417 0)
(365.806 156.516 0)
(365.868 156.553 0)
(365.831 156.688 0)
(365.748 156.76 0)
(365.663 156.952 0)
(365.436 156.741 0)
(365.087 157.159 0)
(343.633 146.87 0)
(342.863 146.603 0)
(342.621 146.501 0)
(342.563 146.409 0)
(342.727 146.312 0)
(343.008 146.251 0)
(343.473 146.25 0)
(344.1 146.446 0)
(344.768 146.895 0)
(345.391 147.314 0)
(345.975 147.591 0)
(346.583 147.752 0)
(347.195 147.89 0)
(347.805 148.09 0)
(348.415 148.357 0)
(349.023 148.626 0)
(349.615 148.852 0)
(350.169 149.059 0)
(350.684 149.283 0)
(351.168 149.542 0)
(351.649 149.8 0)
(352.149 150.027 0)
(352.662 150.233 0)
(353.191 150.424 0)
(353.739 150.602 0)
(354.282 150.805 0)
(354.795 151.045 0)
(355.268 151.294 0)
(355.687 151.544 0)
(356.045 151.806 0)
(356.362 152.06 0)
(356.664 152.297 0)
(356.976 152.505 0)
(357.34 152.647 0)
(357.765 152.738 0)
(358.217 152.827 0)
(358.656 152.955 0)
(359.047 153.148 0)
(359.382 153.387 0)
(359.672 153.64 0)
(359.966 153.864 0)
(360.31 154.044 0)
(360.719 154.168 0)
(361.177 154.236 0)
(361.629 154.284 0)
(362.024 154.336 0)
(362.329 154.426 0)
(362.537 154.614 0)
(362.702 154.867 0)
(362.911 155.104 0)
(363.193 155.31 0)
(363.519 155.498 0)
(363.882 155.653 0)
(364.253 155.759 0)
(364.59 155.837 0)
(364.867 155.918 0)
(365.072 156.032 0)
(365.239 156.123 0)
(365.374 156.239 0)
(365.487 156.324 0)
(365.618 156.42 0)
(365.704 156.604 0)
(365.816 156.736 0)
(365.822 157.002 0)
(365.862 157.147 0)
(365.834 157.391 0)
(365.814 157.328 0)
(365.583 157.804 0)
(342.554 146.856 0)
(341.945 146.734 0)
(341.723 146.481 0)
(341.618 146.33 0)
(341.661 146.261 0)
(341.835 146.212 0)
(342.227 146.147 0)
(342.781 146.203 0)
(343.4 146.39 0)
(343.97 146.649 0)
(344.5 146.9 0)
(345.033 147.143 0)
(345.585 147.38 0)
(346.14 147.632 0)
(346.696 147.878 0)
(347.245 148.083 0)
(347.755 148.265 0)
(348.207 148.458 0)
(348.609 148.696 0)
(348.996 148.974 0)
(349.409 149.238 0)
(349.865 149.464 0)
(350.352 149.651 0)
(350.858 149.811 0)
(351.379 149.993 0)
(351.913 150.232 0)
(352.444 150.516 0)
(352.948 150.811 0)
(353.399 151.109 0)
(353.784 151.409 0)
(354.131 151.695 0)
(354.475 151.966 0)
(354.854 152.19 0)
(355.3 152.347 0)
(355.799 152.466 0)
(356.314 152.578 0)
(356.807 152.708 0)
(357.249 152.86 0)
(357.635 153.035 0)
(357.987 153.216 0)
(358.379 153.356 0)
(358.859 153.446 0)
(359.399 153.518 0)
(359.948 153.6 0)
(360.462 153.711 0)
(360.904 153.879 0)
(361.262 154.099 0)
(361.524 154.36 0)
(361.701 154.665 0)
(361.919 154.951 0)
(362.267 155.219 0)
(362.72 155.456 0)
(363.224 155.646 0)
(363.732 155.775 0)
(364.19 155.847 0)
(364.562 155.917 0)
(364.839 156.026 0)
(365.052 156.107 0)
(365.222 156.212 0)
(365.384 156.316 0)
(365.567 156.505 0)
(365.724 156.751 0)
(365.899 156.952 0)
(366.029 157.245 0)
(366.203 157.448 0)
(366.255 157.799 0)
(366.498 157.861 0)
(366.358 158.304 0)
(341.6 147.185 0)
(341.13 146.907 0)
(340.771 146.568 0)
(340.566 146.377 0)
(340.477 146.276 0)
(340.507 146.206 0)
(340.789 146.045 0)
(341.223 145.909 0)
(341.673 146.018 0)
(342.137 146.195 0)
(342.625 146.392 0)
(343.13 146.627 0)
(343.632 146.915 0)
(344.134 147.185 0)
(344.656 147.375 0)
(345.193 147.485 0)
(345.697 147.556 0)
(346.125 147.676 0)
(346.489 147.888 0)
(346.836 148.175 0)
(347.221 148.453 0)
(347.669 148.687 0)
(348.152 148.911 0)
(348.656 149.126 0)
(349.204 149.317 0)
(349.785 149.525 0)
(350.375 149.767 0)
(350.953 150.021 0)
(351.488 150.285 0)
(351.959 150.577 0)
(352.391 150.881 0)
(352.823 151.187 0)
(353.311 151.445 0)
(353.879 151.63 0)
(354.5 151.76 0)
(355.119 151.864 0)
(355.704 151.957 0)
(356.222 152.063 0)
(356.657 152.225 0)
(357.039 152.45 0)
(357.457 152.675 0)
(357.979 152.868 0)
(358.569 153.054 0)
(359.157 153.24 0)
(359.709 153.45 0)
(360.206 153.677 0)
(360.63 153.909 0)
(360.934 154.204 0)
(361.132 154.541 0)
(361.358 154.845 0)
(361.757 155.093 0)
(362.314 155.288 0)
(362.914 155.456 0)
(363.486 155.604 0)
(363.993 155.747 0)
(364.416 155.858 0)
(364.736 155.949 0)
(364.969 156.019 0)
(365.152 156.218 0)
(365.37 156.403 0)
(365.62 156.644 0)
(365.888 156.874 0)
(366.175 157.126 0)
(366.421 157.505 0)
(366.692 157.816 0)
(366.93 158.138 0)
(367.402 158.302 0)
(367.311 158.679 0)
(339.711 147.177 0)
(339.106 146.679 0)
(338.777 146.528 0)
(338.761 146.313 0)
(338.746 146.336 0)
(338.774 146.354 0)
(339.027 146.136 0)
(339.422 145.804 0)
(339.875 145.521 0)
(340.361 145.431 0)
(340.821 145.613 0)
(341.241 145.992 0)
(341.639 146.404 0)
(342.074 146.699 0)
(342.617 146.819 0)
(343.214 146.852 0)
(343.763 146.936 0)
(344.227 147.137 0)
(344.626 147.438 0)
(345.004 147.802 0)
(345.42 148.142 0)
(345.902 148.442 0)
(346.435 148.707 0)
(347.022 148.895 0)
(347.651 149.011 0)
(348.288 149.13 0)
(348.931 149.288 0)
(349.576 149.475 0)
(350.185 149.749 0)
(350.75 150.098 0)
(351.277 150.46 0)
(351.798 150.798 0)
(352.392 151.063 0)
(353.072 151.26 0)
(353.766 151.421 0)
(354.433 151.556 0)
(355.044 151.705 0)
(355.58 151.933 0)
(356.058 152.224 0)
(356.492 152.516 0)
(356.932 152.759 0)
(357.476 152.955 0)
(358.098 153.122 0)
(358.735 153.249 0)
(359.342 153.39 0)
(359.907 153.565 0)
(360.397 153.768 0)
(360.772 154.04 0)
(361.038 154.369 0)
(361.282 154.698 0)
(361.668 154.981 0)
(362.208 155.215 0)
(362.794 155.412 0)
(363.372 155.573 0)
(363.906 155.695 0)
(364.352 155.8 0)
(364.681 155.937 0)
(364.931 156.073 0)
(365.166 156.307 0)
(365.44 156.547 0)
(365.814 156.812 0)
(366.211 157.103 0)
(366.571 157.468 0)
(366.964 157.844 0)
(367.352 158.173 0)
(367.763 158.444 0)
(368.41 158.666 0)
(368.379 158.92 0)
(336.026 146.679 0)
(336.053 145.658 0)
(336.299 145.162 0)
(336.507 145.405 0)
(336.592 145.847 0)
(336.746 145.956 0)
(337.18 145.707 0)
(337.736 145.342 0)
(338.253 145.109 0)
(338.727 145.154 0)
(339.155 145.414 0)
(339.521 145.773 0)
(339.864 146.111 0)
(340.306 146.299 0)
(340.91 146.372 0)
(341.583 146.434 0)
(342.234 146.555 0)
(342.826 146.777 0)
(343.345 147.106 0)
(343.833 147.484 0)
(344.343 147.839 0)
(344.918 148.117 0)
(345.574 148.32 0)
(346.283 148.45 0)
(347.002 148.521 0)
(347.714 148.598 0)
(348.412 148.749 0)
(349.08 149.012 0)
(349.71 149.404 0)
(350.307 149.836 0)
(350.86 150.253 0)
(351.419 150.589 0)
(352.071 150.84 0)
(352.801 151.054 0)
(353.529 151.245 0)
(354.216 151.428 0)
(354.846 151.65 0)
(355.427 151.931 0)
(355.944 152.225 0)
(356.402 152.478 0)
(356.845 152.687 0)
(357.373 152.871 0)
(357.982 153.035 0)
(358.626 153.162 0)
(359.28 153.266 0)
(359.895 153.4 0)
(360.436 153.58 0)
(360.879 153.819 0)
(361.217 154.125 0)
(361.489 154.499 0)
(361.812 154.854 0)
(362.297 155.113 0)
(362.848 155.313 0)
(363.394 155.48 0)
(363.896 155.629 0)
(364.336 155.784 0)
(364.7 155.974 0)
(364.988 156.175 0)
(365.288 156.444 0)
(365.731 156.708 0)
(366.182 157.05 0)
(366.714 157.384 0)
(367.19 157.768 0)
(367.728 158.084 0)
(368.199 158.381 0)
(368.718 158.592 0)
(369.474 158.808 0)
(369.47 159.072 0)
(333.813 145.223 0)
(333.713 144.441 0)
(334 144.717 0)
(334.299 145.266 0)
(334.547 145.451 0)
(334.946 145.331 0)
(335.643 145.12 0)
(336.381 144.909 0)
(337.011 144.881 0)
(337.54 144.995 0)
(337.964 145.276 0)
(338.302 145.687 0)
(338.66 146.003 0)
(339.164 146.138 0)
(339.871 146.144 0)
(340.655 146.124 0)
(341.394 146.227 0)
(342.07 146.505 0)
(342.693 146.884 0)
(343.292 147.271 0)
(343.904 147.608 0)
(344.553 147.882 0)
(345.284 148.085 0)
(346.062 148.238 0)
(346.836 148.364 0)
(347.59 148.513 0)
(348.316 148.746 0)
(349.022 149.087 0)
(349.689 149.482 0)
(350.304 149.856 0)
(350.865 150.18 0)
(351.453 150.433 0)
(352.134 150.649 0)
(352.867 150.863 0)
(353.594 151.064 0)
(354.275 151.275 0)
(354.911 151.533 0)
(355.506 151.82 0)
(356.046 152.129 0)
(356.498 152.439 0)
(356.92 152.704 0)
(357.428 152.924 0)
(358.028 153.095 0)
(358.655 153.223 0)
(359.296 153.337 0)
(359.917 153.452 0)
(360.481 153.616 0)
(360.993 153.813 0)
(361.428 154.047 0)
(361.784 154.358 0)
(362.107 154.719 0)
(362.506 155.031 0)
(362.995 155.269 0)
(363.515 155.458 0)
(364.01 155.63 0)
(364.468 155.802 0)
(364.88 155.993 0)
(365.284 156.241 0)
(365.747 156.57 0)
(366.264 156.913 0)
(366.799 157.295 0)
(367.432 157.624 0)
(368.026 157.992 0)
(368.647 158.236 0)
(369.176 158.502 0)
(369.712 158.708 0)
(370.514 158.932 0)
(370.534 159.209 0)
(332.447 145.114 0)
(332.171 144.619 0)
(332.672 144.519 0)
(332.95 144.713 0)
(333.141 144.815 0)
(333.615 144.818 0)
(334.455 144.785 0)
(335.299 144.785 0)
(336.035 144.957 0)
(336.652 145.232 0)
(337.165 145.583 0)
(337.639 145.881 0)
(338.164 146.039 0)
(338.809 146.076 0)
(339.566 146.064 0)
(340.348 146.087 0)
(341.095 146.234 0)
(341.81 146.512 0)
(342.498 146.884 0)
(343.174 147.241 0)
(343.855 147.539 0)
(344.559 147.815 0)
(345.318 148.077 0)
(346.117 148.315 0)
(346.912 148.519 0)
(347.694 148.707 0)
(348.438 148.938 0)
(349.158 149.249 0)
(349.85 149.597 0)
(350.468 149.931 0)
(351.013 150.189 0)
(351.575 150.39 0)
(352.253 150.609 0)
(352.968 150.838 0)
(353.682 151.044 0)
(354.386 151.248 0)
(355.048 151.484 0)
(355.689 151.733 0)
(356.263 151.982 0)
(356.735 152.243 0)
(357.157 152.527 0)
(357.632 152.816 0)
(358.203 153.088 0)
(358.829 153.341 0)
(359.45 153.542 0)
(360.046 153.711 0)
(360.612 153.887 0)
(361.155 154.076 0)
(361.687 154.265 0)
(362.164 154.472 0)
(362.571 154.72 0)
(362.965 154.987 0)
(363.423 155.222 0)
(363.93 155.434 0)
(364.44 155.65 0)
(364.929 155.875 0)
(365.4 156.139 0)
(365.91 156.448 0)
(366.448 156.798 0)
(367.037 157.148 0)
(367.649 157.522 0)
(368.332 157.825 0)
(368.995 158.151 0)
(369.643 158.345 0)
(370.206 158.586 0)
(370.722 158.785 0)
(371.516 159.048 0)
(371.58 159.359 0)
(329.769 146.056 0)
(330.98 144.625 0)
(331.581 144.394 0)
(331.781 144.571 0)
(332.072 144.522 0)
(332.745 144.4 0)
(333.651 144.338 0)
(334.488 144.46 0)
(335.273 144.784 0)
(336.016 145.209 0)
(336.744 145.588 0)
(337.45 145.902 0)
(338.127 146.138 0)
(338.865 146.283 0)
(339.657 146.347 0)
(340.431 146.349 0)
(341.146 146.427 0)
(341.835 146.649 0)
(342.556 146.927 0)
(343.301 147.208 0)
(344.019 147.508 0)
(344.734 147.835 0)
(345.502 148.162 0)
(346.298 148.466 0)
(347.101 148.725 0)
(347.9 148.935 0)
(348.665 149.151 0)
(349.393 149.42 0)
(350.084 149.695 0)
(350.688 149.948 0)
(351.194 150.175 0)
(351.759 150.429 0)
(352.443 150.701 0)
(353.153 150.955 0)
(353.879 151.154 0)
(354.611 151.309 0)
(355.291 151.475 0)
(355.93 151.652 0)
(356.521 151.832 0)
(357.055 152.062 0)
(357.546 152.401 0)
(358.045 152.801 0)
(358.578 153.193 0)
(359.151 153.526 0)
(359.749 153.805 0)
(360.352 154.047 0)
(360.955 154.261 0)
(361.56 154.462 0)
(362.142 154.644 0)
(362.692 154.796 0)
(363.203 154.934 0)
(363.679 155.119 0)
(364.161 155.359 0)
(364.669 155.601 0)
(365.19 155.839 0)
(365.708 156.097 0)
(366.244 156.397 0)
(366.795 156.735 0)
(367.384 157.079 0)
(368.011 157.407 0)
(368.656 157.74 0)
(369.345 158.017 0)
(370.011 158.315 0)
(370.652 158.517 0)
(371.224 158.761 0)
(371.712 158.965 0)
(372.449 159.241 0)
(372.593 159.555 0)
(329.948 144.402 0)
(330.494 144.902 0)
(330.541 144.803 0)
(330.639 144.577 0)
(331.302 144.349 0)
(332.294 144.26 0)
(333.211 144.244 0)
(333.987 144.457 0)
(334.822 144.833 0)
(335.696 145.227 0)
(336.601 145.594 0)
(337.492 145.914 0)
(338.326 146.177 0)
(339.143 146.361 0)
(339.936 146.469 0)
(340.669 146.543 0)
(341.338 146.656 0)
(341.988 146.826 0)
(342.701 147.016 0)
(343.457 147.259 0)
(344.219 147.577 0)
(344.985 147.928 0)
(345.774 148.278 0)
(346.58 148.612 0)
(347.382 148.904 0)
(348.181 149.125 0)
(348.967 149.303 0)
(349.701 149.506 0)
(350.386 149.717 0)
(350.984 149.928 0)
(351.521 150.196 0)
(352.136 150.522 0)
(352.84 150.822 0)
(353.561 151.09 0)
(354.284 151.311 0)
(355.001 151.478 0)
(355.682 151.625 0)
(356.32 151.786 0)
(356.933 151.962 0)
(357.538 152.176 0)
(358.155 152.446 0)
(358.782 152.773 0)
(359.386 153.164 0)
(359.934 153.597 0)
(360.463 154.018 0)
(361.036 154.36 0)
(361.646 154.616 0)
(362.27 154.804 0)
(362.903 154.95 0)
(363.504 155.092 0)
(364.067 155.253 0)
(364.604 155.434 0)
(365.13 155.632 0)
(365.656 155.845 0)
(366.186 156.082 0)
(366.733 156.35 0)
(367.297 156.643 0)
(367.878 156.961 0)
(368.49 157.283 0)
(369.118 157.601 0)
(369.757 157.915 0)
(370.41 158.203 0)
(371.047 158.478 0)
(371.649 158.714 0)
(372.213 158.934 0)
(372.685 159.14 0)
(373.36 159.391 0)
(373.577 159.701 0)
(336.875 142.485 0)
(328.539 145.628 0)
(329.15 144.794 0)
(330.245 144.287 0)
(331.402 144.09 0)
(332.568 144.114 0)
(333.383 144.21 0)
(334.092 144.398 0)
(334.874 144.754 0)
(335.754 145.133 0)
(336.697 145.503 0)
(337.643 145.874 0)
(338.539 146.207 0)
(339.392 146.465 0)
(340.205 146.645 0)
(340.943 146.77 0)
(341.611 146.9 0)
(342.26 147.045 0)
(342.946 147.205 0)
(343.671 147.423 0)
(344.452 147.703 0)
(345.3 148.022 0)
(346.147 148.374 0)
(346.973 148.717 0)
(347.772 149.011 0)
(348.57 149.225 0)
(349.378 149.374 0)
(350.141 149.548 0)
(350.853 149.76 0)
(351.503 150.004 0)
(352.129 150.302 0)
(352.796 150.635 0)
(353.497 150.955 0)
(354.212 151.24 0)
(354.915 151.492 0)
(355.589 151.718 0)
(356.24 151.926 0)
(356.886 152.116 0)
(357.539 152.302 0)
(358.215 152.512 0)
(358.907 152.769 0)
(359.597 153.077 0)
(360.273 153.442 0)
(360.906 153.827 0)
(361.476 154.223 0)
(361.999 154.593 0)
(362.562 154.886 0)
(363.172 155.124 0)
(363.793 155.306 0)
(364.436 155.443 0)
(365.067 155.566 0)
(365.646 155.726 0)
(366.198 155.922 0)
(366.734 156.148 0)
(367.274 156.407 0)
(367.831 156.683 0)
(368.409 156.962 0)
(369.006 157.25 0)
(369.623 157.544 0)
(370.242 157.843 0)
(370.861 158.133 0)
(371.47 158.41 0)
(372.067 158.662 0)
(372.621 158.895 0)
(373.157 159.115 0)
(373.618 159.325 0)
(374.24 159.565 0)
(374.513 159.878 0)
(438.763 101.216 0)
(340.407 142.29 0)
(329.754 144.146 0)
(331.115 144.4 0)
(332.186 144.268 0)
(333.2 144.187 0)
(333.801 144.36 0)
(334.244 144.57 0)
(334.954 144.872 0)
(335.85 145.202 0)
(336.815 145.549 0)
(337.797 145.895 0)
(338.732 146.22 0)
(339.634 146.481 0)
(340.479 146.679 0)
(341.241 146.847 0)
(341.935 147.014 0)
(342.609 147.195 0)
(343.293 147.376 0)
(344.046 147.582 0)
(344.893 147.866 0)
(345.78 148.179 0)
(346.657 148.496 0)
(347.49 148.814 0)
(348.296 149.104 0)
(349.105 149.337 0)
(349.939 149.491 0)
(350.751 149.64 0)
(351.502 149.861 0)
(352.221 150.118 0)
(352.931 150.441 0)
(353.636 150.787 0)
(354.34 151.12 0)
(355.042 151.426 0)
(355.727 151.709 0)
(356.382 151.969 0)
(357.015 152.202 0)
(357.656 152.432 0)
(358.322 152.676 0)
(359.007 152.92 0)
(359.736 153.167 0)
(360.497 153.418 0)
(361.216 153.677 0)
(361.904 153.97 0)
(362.542 154.286 0)
(363.087 154.626 0)
(363.605 154.942 0)
(364.196 155.202 0)
(364.815 155.433 0)
(365.445 155.632 0)
(366.088 155.807 0)
(366.68 156.003 0)
(367.24 156.225 0)
(367.793 156.462 0)
(368.355 156.715 0)
(368.924 156.983 0)
(369.511 157.251 0)
(370.112 157.523 0)
(370.731 157.794 0)
(371.34 158.07 0)
(371.938 158.327 0)
(372.511 158.575 0)
(373.061 158.809 0)
(373.568 159.033 0)
(374.079 159.243 0)
(374.523 159.45 0)
(375.101 159.702 0)
(375.429 160.044 0)
(566.104 14.3792 0)
(396.093 121.894 0)
(331.492 147.196 0)
(331.065 145.407 0)
(332.64 144.71 0)
(333.427 144.801 0)
(333.843 144.827 0)
(334.232 144.817 0)
(335.011 144.957 0)
(335.995 145.269 0)
(337.013 145.632 0)
(338.025 145.962 0)
(339.017 146.236 0)
(340.004 146.444 0)
(340.919 146.638 0)
(341.739 146.864 0)
(342.496 147.081 0)
(343.23 147.279 0)
(343.948 147.48 0)
(344.756 147.758 0)
(345.615 148.1 0)
(346.476 148.428 0)
(347.334 148.737 0)
(348.15 149.027 0)
(348.948 149.26 0)
(349.766 149.427 0)
(350.621 149.566 0)
(351.474 149.709 0)
(352.265 149.948 0)
(353.023 150.271 0)
(353.768 150.62 0)
(354.494 150.963 0)
(355.216 151.279 0)
(355.94 151.576 0)
(356.644 151.87 0)
(357.313 152.167 0)
(357.927 152.482 0)
(358.523 152.805 0)
(359.166 153.093 0)
(359.849 153.337 0)
(360.594 153.528 0)
(361.383 153.706 0)
(362.137 153.913 0)
(362.83 154.155 0)
(363.491 154.409 0)
(364.087 154.675 0)
(364.617 154.973 0)
(365.182 155.274 0)
(365.795 155.551 0)
(366.408 155.817 0)
(367.035 156.064 0)
(367.637 156.29 0)
(368.217 156.518 0)
(368.786 156.764 0)
(369.361 157.025 0)
(369.945 157.297 0)
(370.542 157.562 0)
(371.152 157.815 0)
(371.777 158.049 0)
(372.383 158.28 0)
(372.958 158.5 0)
(373.5 158.718 0)
(374.02 158.928 0)
(374.497 159.145 0)
(374.968 159.368 0)
(375.391 159.61 0)
(375.938 159.908 0)
(376.327 160.308 0)
(579.838 0.26538 0)
(541.259 35.4737 0)
(374.985 134.141 0)
(333.584 144.523 0)
(333.381 145.165 0)
(333.803 145.198 0)
(334.073 145.117 0)
(334.515 144.935 0)
(335.333 144.957 0)
(336.379 145.357 0)
(337.392 145.795 0)
(338.422 146.143 0)
(339.484 146.37 0)
(340.57 146.489 0)
(341.598 146.627 0)
(342.521 146.877 0)
(343.392 147.181 0)
(344.216 147.465 0)
(344.996 147.767 0)
(345.798 148.108 0)
(346.62 148.434 0)
(347.434 148.709 0)
(348.235 148.943 0)
(348.997 149.181 0)
(349.718 149.396 0)
(350.457 149.571 0)
(351.279 149.752 0)
(352.131 149.964 0)
(352.971 150.239 0)
(353.766 150.57 0)
(354.538 150.904 0)
(355.295 151.216 0)
(356.05 151.492 0)
(356.817 151.748 0)
(357.57 151.989 0)
(358.283 152.261 0)
(358.95 152.575 0)
(359.576 152.914 0)
(360.185 153.243 0)
(360.822 153.533 0)
(361.492 153.784 0)
(362.206 153.981 0)
(362.968 154.125 0)
(363.679 154.278 0)
(364.327 154.485 0)
(364.936 154.729 0)
(365.5 155.025 0)
(366.079 155.355 0)
(366.698 155.654 0)
(367.325 155.928 0)
(367.956 156.187 0)
(368.567 156.412 0)
(369.166 156.651 0)
(369.756 156.902 0)
(370.351 157.158 0)
(370.95 157.425 0)
(371.555 157.693 0)
(372.162 157.958 0)
(372.773 158.206 0)
(373.363 158.426 0)
(373.913 158.638 0)
(374.43 158.849 0)
(374.923 159.059 0)
(375.382 159.288 0)
(375.833 159.539 0)
(376.255 159.825 0)
(376.805 160.15 0)
(377.259 160.572 0)
(580 0.00032174 0)
(579.083 1.17743 0)
(513.959 63.1165 0)
(347.948 139.536 0)
(332.043 146.385 0)
(333.23 145.342 0)
(334.47 144.796 0)
(335.206 144.924 0)
(335.965 145.147 0)
(336.981 145.563 0)
(338.016 145.922 0)
(339.122 146.186 0)
(340.266 146.391 0)
(341.372 146.597 0)
(342.402 146.793 0)
(343.38 147.052 0)
(344.324 147.347 0)
(345.246 147.634 0)
(346.135 147.924 0)
(346.956 148.236 0)
(347.742 148.529 0)
(348.492 148.805 0)
(349.204 149.071 0)
(349.881 149.325 0)
(350.518 149.535 0)
(351.175 149.682 0)
(351.968 149.866 0)
(352.824 150.124 0)
(353.691 150.41 0)
(354.53 150.729 0)
(355.322 151.058 0)
(356.096 151.347 0)
(356.877 151.598 0)
(357.676 151.843 0)
(358.483 152.093 0)
(359.271 152.374 0)
(359.993 152.699 0)
(360.665 153.052 0)
(361.283 153.407 0)
(361.843 153.738 0)
(362.414 154.007 0)
(363.05 154.227 0)
(363.724 154.403 0)
(364.404 154.588 0)
(365.045 154.808 0)
(365.666 155.06 0)
(366.274 155.33 0)
(366.896 155.616 0)
(367.531 155.9 0)
(368.175 156.178 0)
(368.818 156.405 0)
(369.449 156.591 0)
(370.077 156.79 0)
(370.702 157.016 0)
(371.322 157.26 0)
(371.933 157.528 0)
(372.534 157.811 0)
(373.122 158.095 0)
(373.701 158.362 0)
(374.259 158.609 0)
(374.786 158.84 0)
(375.281 159.066 0)
(375.757 159.297 0)
(376.215 159.548 0)
(376.669 159.828 0)
(377.116 160.152 0)
(377.679 160.479 0)
(378.201 160.843 0)
(580 4.64824e-07 0)
(579.997 0.00307045 0)
(577.317 3.40313 0)
(455.107 90.2016 0)
(347.951 142.025 0)
(334.137 144.486 0)
(335.836 145.133 0)
(336.176 145.376 0)
(336.781 145.45 0)
(337.815 145.744 0)
(339.034 146.126 0)
(340.289 146.438 0)
(341.37 146.621 0)
(342.306 146.807 0)
(343.19 147.026 0)
(344.087 147.255 0)
(345.018 147.504 0)
(345.979 147.827 0)
(346.907 148.235 0)
(347.718 148.622 0)
(348.481 148.968 0)
(349.221 149.243 0)
(349.966 149.427 0)
(350.685 149.526 0)
(351.319 149.602 0)
(351.937 149.759 0)
(352.709 150.048 0)
(353.549 150.385 0)
(354.413 150.705 0)
(355.295 151.007 0)
(356.118 151.303 0)
(356.916 151.563 0)
(357.722 151.805 0)
(358.534 152.053 0)
(359.355 152.301 0)
(360.194 152.554 0)
(360.99 152.84 0)
(361.677 153.141 0)
(362.317 153.452 0)
(362.887 153.781 0)
(363.385 154.105 0)
(363.898 154.377 0)
(364.5 154.604 0)
(365.138 154.815 0)
(365.788 155.022 0)
(366.429 155.235 0)
(367.074 155.473 0)
(367.72 155.743 0)
(368.366 156.002 0)
(369.016 156.237 0)
(369.666 156.448 0)
(370.317 156.641 0)
(370.974 156.832 0)
(371.633 157.038 0)
(372.279 157.265 0)
(372.902 157.529 0)
(373.486 157.83 0)
(374.04 158.158 0)
(374.575 158.485 0)
(375.091 158.792 0)
(375.586 159.083 0)
(376.068 159.36 0)
(376.554 159.616 0)
(377.041 159.879 0)
(377.537 160.149 0)
(378.022 160.394 0)
(378.603 160.606 0)
(379.161 160.869 0)
(580 5.5235e-10 0)
(580 3.50667e-06 0)
(579.983 0.0221093 0)
(569.405 9.58686 0)
(428.542 109.2 0)
(337.837 148.485 0)
(336.425 146.511 0)
(336.952 146.103 0)
(337.882 145.864 0)
(339.143 145.744 0)
(340.555 146.111 0)
(341.678 146.482 0)
(342.44 146.841 0)
(343.008 147.135 0)
(343.645 147.384 0)
(344.412 147.648 0)
(345.297 147.897 0)
(346.327 148.159 0)
(347.295 148.438 0)
(348.14 148.784 0)
(348.943 149.12 0)
(349.754 149.354 0)
(350.587 149.474 0)
(351.4 149.526 0)
(352.114 149.593 0)
(352.782 149.791 0)
(353.569 150.099 0)
(354.405 150.425 0)
(355.275 150.75 0)
(356.185 151.061 0)
(357.033 151.361 0)
(357.841 151.638 0)
(358.64 151.906 0)
(359.43 152.203 0)
(360.214 152.5 0)
(361.025 152.791 0)
(361.831 153.087 0)
(362.527 153.388 0)
(363.154 153.676 0)
(363.744 153.974 0)
(364.255 154.271 0)
(364.729 154.546 0)
(365.294 154.783 0)
(365.923 154.991 0)
(366.564 155.183 0)
(367.223 155.384 0)
(367.89 155.641 0)
(368.546 155.909 0)
(369.193 156.165 0)
(369.838 156.391 0)
(370.488 156.596 0)
(371.153 156.795 0)
(371.836 156.99 0)
(372.52 157.188 0)
(373.178 157.411 0)
(373.792 157.679 0)
(374.345 157.988 0)
(374.868 158.332 0)
(375.371 158.693 0)
(375.858 159.053 0)
(376.342 159.383 0)
(376.839 159.662 0)
(377.362 159.897 0)
(377.894 160.114 0)
(378.432 160.296 0)
(378.943 160.471 0)
(379.511 160.641 0)
(380.103 160.894 0)
(580 3.22414e-13 0)
(580 4.80667e-09 0)
(580 2.12813e-05 0)
(579.905 0.13771 0)
(558.677 19.913 0)
(403.142 121.295 0)
(342.903 144.732 0)
(338.008 145.958 0)
(339.344 145.825 0)
(340.793 145.781 0)
(342.066 146.26 0)
(342.744 146.852 0)
(343.028 147.239 0)
(343.29 147.503 0)
(343.793 147.737 0)
(344.623 147.95 0)
(345.59 148.11 0)
(346.618 148.348 0)
(347.544 148.645 0)
(348.409 148.999 0)
(349.278 149.325 0)
(350.208 149.597 0)
(351.2 149.764 0)
(352.169 149.773 0)
(353.008 149.771 0)
(353.752 149.99 0)
(354.538 150.341 0)
(355.345 150.698 0)
(356.207 151.022 0)
(357.139 151.29 0)
(358.018 151.538 0)
(358.821 151.82 0)
(359.562 152.147 0)
(360.267 152.502 0)
(360.97 152.837 0)
(361.699 153.167 0)
(362.474 153.457 0)
(363.19 153.687 0)
(363.833 153.929 0)
(364.458 154.166 0)
(365.017 154.374 0)
(365.525 154.549 0)
(366.113 154.729 0)
(366.783 154.915 0)
(367.458 155.08 0)
(368.154 155.284 0)
(368.829 155.56 0)
(369.484 155.861 0)
(370.123 156.181 0)
(370.757 156.481 0)
(371.387 156.742 0)
(372.037 156.959 0)
(372.708 157.151 0)
(373.382 157.35 0)
(374.023 157.578 0)
(374.612 157.841 0)
(375.138 158.128 0)
(375.65 158.459 0)
(376.155 158.851 0)
(376.64 159.239 0)
(377.129 159.545 0)
(377.645 159.792 0)
(378.19 160.006 0)
(378.743 160.194 0)
(379.288 160.347 0)
(379.818 160.494 0)
(380.431 160.681 0)
(381.072 160.916 0)
(580 -1.53924e-13 0)
(580 4.76583e-12 0)
(580 2.74237e-08 0)
(580 0.000101989 0)
(579.694 0.417434 0)
(543.941 33.3502 0)
(380.899 129.997 0)
(339.237 148.211 0)
(339.668 146.22 0)
(341.898 145.631 0)
(342.768 146.34 0)
(342.984 147.081 0)
(343.204 147.577 0)
(343.668 147.774 0)
(344.273 147.94 0)
(345.123 148.161 0)
(346.085 148.401 0)
(347.08 148.635 0)
(348.061 148.867 0)
(349.025 149.121 0)
(349.992 149.432 0)
(351.007 149.703 0)
(352.06 149.851 0)
(353.069 149.881 0)
(353.979 149.986 0)
(354.797 150.243 0)
(355.585 150.553 0)
(356.381 150.847 0)
(357.223 151.096 0)
(358.131 151.292 0)
(359.003 151.488 0)
(359.783 151.788 0)
(360.499 152.142 0)
(361.118 152.554 0)
(361.721 152.975 0)
(362.385 153.322 0)
(363.084 153.624 0)
(363.769 153.869 0)
(364.428 154.102 0)
(365.076 154.326 0)
(365.686 154.518 0)
(366.279 154.658 0)
(366.956 154.792 0)