/*--------------------------------*- C++ -*----------------------------------*\
| =========                 |                                                 |
| \\      /  F ield         | OpenFOAM: The Open Source CFD Toolbox           |
|  \\    /   O peration     | Version:  2306                                  |
|   \\  /    A nd           | Website:  www.openfoam.com                      |
|    \\/     M anipulation  |                                                 |
\*---------------------------------------------------------------------------*/
FoamFile
{
    version     2.0;
    format      ascii;
    arch        "LSB;label=32;scalar=64";
    class       volVectorField;
    location    "4e-05";
    object      U;
}
// * * * * * * * * * * * * * * * * * * * * * * * * * * * * * * * * * * * * * //

dimensions      [0 1 -1 0 0 0 0];

internalField   nonuniform List<vector> 
8983
(
(580 3.74357e-14 0)
(580 5.1194e-14 0)
(580 4.57309e-14 0)
(580 1.92978e-13 0)
(580 2.68991e-13 0)
(580 2.49769e-13 0)
(580 2.75459e-13 0)
(580 1.91933e-13 0)
(580 1.61836e-13 0)
(580 2.06612e-13 0)
(580 3.47902e-13 0)
(580 3.48903e-13 0)
(580 3.4174e-13 0)
(580 1.90254e-13 0)
(580 2.06801e-13 0)
(580 2.28411e-13 0)
(580 2.42467e-13 0)
(580 1.69417e-13 0)
(580 3.28322e-14 0)
(580 8.23688e-14 0)
(580 3.02012e-14 0)
(580 1.93095e-13 0)
(580 2.14496e-13 0)
(580 2.32442e-13 0)
(580 2.81277e-13 0)
(580 3.08796e-13 0)
(580 5.17532e-13 0)
(580 6.40596e-13 0)
(580 8.03122e-13 0)
(580 9.53815e-13 0)
(580 8.0917e-13 0)
(580 9.11882e-13 0)
(580 9.43536e-13 0)
(580 1.10067e-12 0)
(580 1.26922e-12 0)
(580 1.37803e-12 0)
(580 1.52465e-12 0)
(580 1.71523e-12 0)
(580 1.72856e-12 0)
(580 1.76811e-12 0)
(580 2.13676e-12 0)
(580 2.4157e-12 0)
(580 2.27137e-12 0)
(580 2.76082e-14 0)
(580 1.52048e-13 0)
(580 2.31723e-13 0)
(580 3.00177e-13 0)
(580 2.31025e-13 0)
(580 2.00002e-13 0)
(580 1.99307e-13 0)
(580 1.43685e-13 0)
(580 3.336e-14 0)
(580 -3.73656e-16 0)
(580 -2.43849e-14 0)
(580 8.88139e-14 0)
(580 2.68175e-13 0)
(580 3.68923e-13 0)
(580 4.8404e-13 0)
(580 5.94124e-13 0)
(580 7.62588e-13 0)
(580 7.6464e-13 0)
(580 7.614e-13 0)
(580 7.58243e-13 0)
(580 8.41919e-13 0)
(580 9.21098e-13 0)
(580 9.65141e-13 0)
(580 1.22935e-12 0)
(580 1.58337e-12 0)
(580 1.63974e-12 0)
(580 1.47765e-12 0)
(580 1.35931e-12 0)
(580 1.52623e-12 0)
(580 1.59826e-12 0)
(580 1.81107e-12 0)
(580 1.82348e-12 0)
(580 2.03421e-12 0)
(580 2.23226e-12 0)
(580 2.25095e-12 0)
(580 2.20481e-12 0)
(580 2.1389e-12 0)
(580 2.12486e-12 0)
(580 2.12804e-12 0)
(580 2.09566e-12 0)
(580 2.06048e-12 0)
(580 1.99632e-12 0)
(580 1.93031e-12 0)
(580 1.94695e-12 0)
(580 2.05601e-12 0)
(580 2.28107e-12 0)
(580 2.37622e-12 0)
(580 2.57174e-12 0)
(580 2.63543e-12 0)
(580 2.69069e-12 0)
(580 2.74761e-12 0)
(580 2.85199e-12 0)
(580 3.03063e-12 0)
(580 3.09757e-12 0)
(580 3.29746e-12 0)
(580 3.54591e-12 0)
(580 4.10273e-12 0)
(580 4.32456e-12 0)
(580 4.3077e-12 0)
(580 4.10396e-12 0)
(580 4.03383e-12 0)
(580 3.92085e-12 0)
(580 3.65119e-12 0)
(580 3.5581e-12 0)
(580 3.46423e-12 0)
(580 3.33712e-12 0)
(580 3.10961e-12 0)
(580 2.81535e-12 0)
(580 2.51562e-12 0)
(580 2.32887e-12 0)
(580 2.25215e-12 0)
(580 2.17167e-12 0)
(580 2.20512e-12 0)
(580 2.15469e-12 0)
(580 2.1203e-12 0)
(580 2.03445e-12 0)
(580 2.01384e-12 0)
(580 2.08711e-12 0)
(580 1.95018e-12 0)
(580 2.00145e-12 0)
(580 2.35173e-15 0)
(580 6.62485e-14 0)
(580 9.82581e-14 0)
(580 7.61441e-14 0)
(580 -2.91455e-14 0)
(580 2.7451e-14 0)
(580 1.12337e-13 0)
(580 2.50367e-13 0)
(580 2.91151e-13 0)
(580 2.763e-13 0)
(580 2.79427e-13 0)
(580 2.93677e-13 0)
(580 2.70799e-13 0)
(580 3.09921e-13 0)
(580 3.47625e-13 0)
(580 4.02084e-13 0)
(580 3.99999e-13 0)
(580 5.90446e-13 0)
(580 6.70694e-13 0)
(580 7.27151e-13 0)
(580 8.98464e-13 0)
(580 1.05428e-12 0)
(580 1.31211e-12 0)
(580 1.51237e-12 0)
(580 1.54071e-12 0)
(580 1.52497e-12 0)
(580 1.33294e-12 0)
(580 1.24574e-12 0)
(580 1.15744e-12 0)
(580 1.17908e-12 0)
(580 1.23791e-12 0)
(580 1.29465e-12 0)
(580 1.43501e-12 0)
(580 1.49804e-12 0)
(580 1.61663e-12 0)
(580 1.68975e-12 0)
(580 1.93061e-12 0)
(580 2.05127e-12 0)
(580 1.81669e-12 0)
(580 1.79971e-12 0)
(580 1.82331e-12 0)
(580 1.84231e-12 0)
(580 1.73208e-12 0)
(580 1.53393e-12 0)
(580 1.60101e-12 0)
(580 1.62416e-12 0)
(580 1.64693e-12 0)
(580 1.73909e-12 0)
(580 1.98291e-12 0)
(580 2.28485e-12 0)
(580 2.54e-12 0)
(580 2.64183e-12 0)
(580 2.98422e-12 0)
(580 3.39012e-12 0)
(580 3.86349e-12 0)
(580 4.33153e-12 0)
(580 4.80493e-12 0)
(580 4.9206e-12 0)
(580 4.97131e-12 0)
(580 4.42217e-12 0)
(580 4.21062e-12 0)
(580 4.0153e-12 0)
(580 3.70451e-12 0)
(580 3.48548e-12 0)
(580 3.01292e-12 0)
(580 2.44648e-12 0)
(580 1.7866e-12 0)
(580 1.3932e-12 0)
(580 1.22196e-12 0)
(580 1.31744e-12 0)
(580 1.37271e-12 0)
(580 1.34888e-12 0)
(580 1.45539e-12 0)
(580 1.45044e-12 0)
(580 1.6867e-12 0)
(580 1.77061e-12 0)
(580 1.87815e-12 0)
(580 2.03521e-12 0)
(580 2.34207e-12 0)
(580 2.06852e-12 0)
(580 1.21193e-14 0)
(580 2.64152e-14 0)
(580 1.47402e-14 0)
(580 -7.83327e-14 0)
(580 4.78983e-14 0)
(580 3.92939e-13 0)
(580 4.68577e-13 0)
(580 4.93617e-13 0)
(580 5.43408e-13 0)
(580 6.1998e-13 0)
(580 5.60368e-13 0)
(580 3.26941e-13 0)
(580 1.35941e-13 0)
(580 6.79555e-14 0)
(580 1.44164e-14 0)
(580 -6.53718e-14 0)
(580 6.3547e-14 0)
(580 4.24912e-13 0)
(580 6.33234e-13 0)
(580 1.03548e-12 0)
(580 1.59719e-12 0)
(580 1.7833e-12 0)
(580 1.67907e-12 0)
(580 1.49141e-12 0)
(580 1.28392e-12 0)
(580 1.12817e-12 0)
(580 9.6283e-13 0)
(580 9.58062e-13 0)
(580 9.32104e-13 0)
(580 9.58185e-13 0)
(580 9.6937e-13 0)
(580 8.88054e-13 0)
(580 8.42918e-13 0)
(580 8.27963e-13 0)
(580 1.09164e-12 0)
(580 1.27809e-12 0)
(580 1.79233e-12 0)
(580 2.02711e-12 0)
(580 2.42969e-12 0)
(580 2.44553e-12 0)
(580 2.25583e-12 0)
(580 1.84972e-12 0)
(580 1.44683e-12 0)
(580 1.21149e-12 0)
(580 9.57952e-13 0)
(580 9.17647e-13 0)
(580 8.88019e-13 0)
(580 7.93695e-13 0)
(580 8.4924e-13 0)
(580 1.00895e-12 0)
(580 1.73327e-12 0)
(580 2.74588e-12 0)
(580 3.21147e-12 0)
(580 4.03886e-12 0)
(580 4.7728e-12 0)
(580 5.53989e-12 0)
(580 5.73716e-12 0)
(580 5.74377e-12 0)
(580 5.56955e-12 0)
(580 5.33112e-12 0)
(580 5.04972e-12 0)
(580 4.60322e-12 0)
(580 4.43985e-12 0)
(580 3.60034e-12 0)
(580 2.6378e-12 0)
(580 1.19856e-12 0)
(580 2.01031e-13 0)
(580 2.19142e-13 0)
(580 7.04964e-13 0)
(580 1.43858e-12 0)
(580 1.73211e-12 0)
(580 1.66425e-12 0)
(580 1.48273e-12 0)
(580 1.52175e-12 0)
(580 1.49415e-12 0)
(580 1.56657e-12 0)
(580 1.4947e-12 0)
(580 1.78619e-12 0)
(580 2.26981e-12 0)
(580 2.02712e-12 0)
(580 -4.66049e-14 0)
(580 3.32988e-14 0)
(580 1.3399e-13 0)
(580 1.7745e-13 0)
(580 -2.13752e-14 0)
(580 -5.23233e-14 0)
(580 -1.28356e-13 0)
(580 -1.01099e-13 0)
(580 -1.47445e-13 0)
(580 -1.27211e-13 0)
(580 -1.80575e-13 0)
(580 -2.28521e-13 0)
(580 -3.09495e-13 0)
(580 -3.41354e-13 0)
(580 -2.1712e-13 0)
(580 -1.355e-13 0)
(580 1.02053e-13 0)
(580 3.47119e-13 0)
(580 7.84511e-13 0)
(580 1.33561e-12 0)
(580 1.73671e-12 0)
(580 1.65033e-12 0)
(580 1.37782e-12 0)
(580 1.15446e-12 0)
(580 1.01125e-12 0)
(580 7.28087e-13 0)
(580 5.89268e-13 0)
(580 5.35838e-13 0)
(580 6.53774e-13 0)
(580 8.12941e-13 0)
(580 1.00018e-12 0)
(580 1.22721e-12 0)
(580 1.17582e-12 0)
(580 1.03601e-12 0)
(580 1.46808e-12 0)
(580 1.61825e-12 0)
(580 1.80721e-12 0)
(580 2.14859e-12 0)
(580 2.63885e-12 0)
(580 2.77342e-12 0)
(580 2.55025e-12 0)
(580 2.49484e-12 0)
(580 2.40782e-12 0)
(580 2.38413e-12 0)
(580 2.15687e-12 0)
(580 1.87057e-12 0)
(580 1.59296e-12 0)
(580 1.14466e-12 0)
(580 6.88676e-13 0)
(580 8.30076e-13 0)
(580 1.31867e-12 0)
(580 1.87677e-12 0)
(580 2.87237e-12 0)
(580 3.7555e-12 0)
(580 4.64896e-12 0)
(580 4.7194e-12 0)
(580 4.55736e-12 0)
(580 4.14572e-12 0)
(580 4.30693e-12 0)
(580 4.20964e-12 0)
(580 3.59824e-12 0)
(580 3.42878e-12 0)
(580 3.40137e-12 0)
(580 3.15477e-12 0)
(580 3.05312e-12 0)
(580 2.16911e-12 0)
(580 1.18107e-12 0)
(580 1.08185e-12 0)
(580 1.23697e-12 0)
(580 1.1994e-12 0)
(580 1.03863e-12 0)
(580 7.02156e-13 0)
(580 6.0046e-13 0)
(580 8.24715e-13 0)
(580 9.62762e-13 0)
(580 8.94031e-13 0)
(580 7.89761e-13 0)
(580 8.2123e-13 0)
(580 9.70488e-13 0)
(580 1.23046e-12 0)
(580 -1.30109e-15 0)
(580 -1.17909e-14 0)
(580 4.41715e-14 0)
(580 5.01846e-14 0)
(580 -1.498e-14 0)
(580 -1.71512e-13 0)
(580 -3.22347e-13 0)
(580 -3.38174e-13 0)
(580 -2.31168e-13 0)
(580 -3.90142e-13 0)
(580 -3.98943e-13 0)
(580 -3.2574e-13 0)
(580 -3.70914e-13 0)
(580 -3.16344e-13 0)
(580 -1.30664e-13 0)
(580 1.82543e-13 0)
(580 2.64289e-13 0)
(580 3.98288e-13 0)
(580 6.12507e-13 0)
(580 7.8507e-13 0)
(580 8.38626e-13 0)
(580 8.58398e-13 0)
(580 1.08186e-12 0)
(580 1.23302e-12 0)
(580 1.15966e-12 0)
(580 1.29639e-12 0)
(580 1.22647e-12 0)
(580 8.04323e-13 0)
(580 7.42564e-13 0)
(580 9.33612e-13 0)
(580 1.03692e-12 0)
(580 1.17656e-12 0)
(580 1.24527e-12 0)
(580 1.29056e-12 0)
(580 1.48866e-12 0)
(580 1.52316e-12 0)
(580 1.57244e-12 0)
(580 1.71106e-12 0)
(580 1.58888e-12 0)
(580 1.63997e-12 0)
(580 2.04448e-12 0)
(580 2.19353e-12 0)
(580 2.44016e-12 0)
(580 2.44812e-12 0)
(580 2.53771e-12 0)
(580 2.52588e-12 0)
(580 2.49556e-12 0)
(580 2.46371e-12 0)
(580 2.72207e-12 0)
(580 2.11628e-12 0)
(580 1.87769e-12 0)
(580 1.92767e-12 0)
(580 2.1877e-12 0)
(580 2.60426e-12 0)
(580 2.98115e-12 0)
(580 2.61447e-12 0)
(580 2.13015e-12 0)
(580 2.30907e-12 0)
(580 2.1032e-12 0)
(580 1.99689e-12 0)
(580 1.44982e-12 0)
(580 1.27113e-12 0)
(580 1.53064e-12 0)
(580 1.52347e-12 0)
(580 2.2352e-12 0)
(580 2.41659e-12 0)
(580 2.33945e-12 0)
(580 2.04495e-12 0)
(580 8.63465e-13 0)
(580 1.1751e-13 0)
(580 2.31579e-13 0)
(580 4.31681e-13 0)
(580 3.07904e-13 0)
(580 2.37344e-15 0)
(580 1.47088e-13 0)
(580 2.02075e-13 0)
(580 4.16966e-13 0)
(580 5.30401e-13 0)
(580 5.65491e-13 0)
(580 6.57359e-13 0)
(580 5.76677e-14 0)
(580 -1.109e-13 0)
(580 -1.60613e-13 0)
(580 -1.87376e-13 0)
(580 -1.42377e-13 0)
(580 -1.78113e-13 0)
(580 -1.56811e-13 0)
(580 -2.96488e-13 0)
(580 -3.36263e-13 0)
(580 -3.8825e-13 0)
(580 -3.9348e-13 0)
(580 -1.67655e-13 0)
(580 2.02271e-13 0)
(580 4.0009e-13 0)
(580 3.71133e-13 0)
(580 3.84371e-13 0)
(580 5.11566e-13 0)
(580 4.90296e-13 0)
(580 4.98015e-13 0)
(580 4.77644e-13 0)
(580 3.84249e-13 0)
(580 2.25469e-14 0)
(580 2.83673e-13 0)
(580 6.71099e-13 0)
(580 7.17225e-13 0)
(580 8.82647e-13 0)
(580 1.0057e-12 0)
(580 1.24252e-12 0)
(580 1.21111e-12 0)
(580 1.24101e-12 0)
(580 1.20165e-12 0)
(580 1.21943e-12 0)
(580 1.3681e-12 0)
(580 1.42137e-12 0)
(580 1.3273e-12 0)
(580 1.29344e-12 0)
(580 1.18212e-12 0)
(580 9.64275e-13 0)
(580 7.08608e-13 0)
(580 8.92447e-13 0)
(580 1.19678e-12 0)
(580 1.4843e-12 0)
(580 1.92452e-12 0)
(580 2.04897e-12 0)
(580 2.16356e-12 0)
(580 2.26334e-12 0)
(580 2.46053e-12 0)
(580 2.93732e-12 0)
(580 3.129e-12 0)
(580 3.55003e-12 0)
(580 3.55281e-12 0)
(580 2.52771e-12 0)
(580 2.24576e-12 0)
(580 2.19085e-12 0)
(580 2.17549e-12 0)
(580 1.87553e-12 0)
(580 1.06285e-12 0)
(580 1.34715e-12 0)
(580 1.40346e-12 0)
(580 1.10456e-12 0)
(580 6.87882e-13 0)
(580 6.66647e-13 0)
(580 8.4452e-13 0)
(580 9.97553e-13 0)
(580 1.60172e-12 0)
(580 2.25452e-12 0)
(580 2.39535e-12 0)
(580 2.39037e-12 0)
(580 1.68075e-12 0)
(580 1.27235e-12 0)
(580 7.19238e-13 0)
(580 5.37464e-13 0)
(580 6.22142e-13 0)
(580 3.65723e-13 0)
(580 2.24614e-13 0)
(580 2.8014e-13 0)
(580 3.86628e-13 0)
(580 4.71536e-13 0)
(580 6.59937e-13 0)
(580 9.837e-13 0)
(580 -2.69464e-15 0)
(580 -1.08693e-16 0)
(580 3.27771e-14 0)
(580 3.39675e-14 0)
(580 -2.77795e-14 0)
(580 -1.28346e-13 0)
(580 -2.29539e-13 0)
(580 -2.81435e-13 0)
(580 -2.83858e-13 0)
(580 -3.16432e-13 0)
(580 -1.91806e-13 0)
(580 -1.66539e-13 0)
(580 1.23286e-13 0)
(580 3.96759e-13 0)
(580 4.97175e-13 0)
(580 4.92646e-13 0)
(580 5.2399e-13 0)
(580 2.44843e-13 0)
(580 1.49244e-13 0)
(580 -1.43556e-13 0)
(580 -3.19508e-13 0)
(580 -3.9915e-13 0)
(580 1.65057e-13 0)
(580 4.9379e-13 0)
(580 8.451e-13 0)
(580 1.25372e-12 0)
(580 1.54614e-12 0)
(580 1.52565e-12 0)
(580 1.3919e-12 0)
(580 1.1265e-12 0)
(580 1.07736e-12 0)
(580 1.33047e-12 0)
(580 1.66271e-12 0)
(580 1.79022e-12 0)
(580 1.62593e-12 0)
(580 1.27366e-12 0)
(580 9.07382e-13 0)
(580 7.68012e-13 0)
(580 8.64792e-13 0)
(580 7.32941e-13 0)
(580 6.0048e-13 0)
(580 1.19715e-12 0)
(580 1.65312e-12 0)
(580 1.84885e-12 0)
(580 1.98207e-12 0)
(580 2.31415e-12 0)
(580 2.55912e-12 0)
(580 3.22542e-12 0)
(580 3.69727e-12 0)
(580 4.07455e-12 0)
(580 3.86101e-12 0)
(580 3.39026e-12 0)
(580 2.37934e-12 0)
(580 1.99696e-12 0)
(580 1.63925e-12 0)
(580 1.03609e-12 0)
(580 5.37894e-13 0)
(580 2.59482e-13 0)
(580 -7.12712e-14 0)
(580 -2.04617e-13 0)
(580 -8.50272e-14 0)
(580 9.13849e-14 0)
(580 1.73217e-13 0)
(580 6.68685e-13 0)
(580 1.13416e-12 0)
(580 1.50109e-12 0)
(580 2.00912e-12 0)
(580 2.13221e-12 0)
(580 1.99288e-12 0)
(580 1.7673e-12 0)
(580 8.20698e-13 0)
(580 1.69075e-13 0)
(580 3.7447e-13 0)
(580 5.74881e-13 0)
(580 1.86295e-13 0)
(580 -2.42235e-13 0)
(580 -2.42111e-13 0)
(580 -9.46109e-14 0)
(580 5.12793e-13 0)
(580 5.92614e-13 0)
(580 -7.87092e-14 0)
(580 -1.33768e-13 0)
(580 -2.09198e-13 0)
(580 -1.56363e-13 0)
(580 -7.36392e-14 0)
(580 -1.25438e-13 0)
(580 -9.55417e-14 0)
(580 -1.10804e-13 0)
(580 -1.48979e-14 0)
(580 1.11613e-13 0)
(580 2.53142e-13 0)
(580 2.64559e-13 0)
(580 3.34395e-13 0)
(580 4.91374e-13 0)
(580 5.40176e-13 0)
(580 3.02414e-13 0)
(580 5.42146e-14 0)
(580 -4.53644e-14 0)
(580 -3.07948e-13 0)
(580 -4.94387e-13 0)
(580 -5.76636e-13 0)
(580 -4.37914e-13 0)
(580 -2.0912e-13 0)
(580 1.09383e-13 0)
(580 3.33685e-13 0)
(580 7.38112e-13 0)
(580 1.00358e-12 0)
(580 1.09665e-12 0)
(580 1.11462e-12 0)
(580 9.3434e-13 0)
(580 1.00695e-12 0)
(580 9.75133e-13 0)
(580 9.47902e-13 0)
(580 9.84793e-13 0)
(580 1.3054e-12 0)
(580 1.34896e-12 0)
(580 1.09803e-12 0)
(580 5.51658e-13 0)
(580 1.16033e-13 0)
(580 -7.95258e-14 0)
(580 9.98616e-14 0)
(580 3.90877e-13 0)
(580 7.57149e-13 0)
(580 9.96296e-13 0)
(580 1.24651e-12 0)
(580 1.43065e-12 0)
(580 1.72855e-12 0)
(580 1.89872e-12 0)
(580 2.37337e-12 0)
(580 2.75538e-12 0)
(580 2.7083e-12 0)
(580 2.75402e-12 0)
(580 2.55484e-12 0)
(580 2.02599e-12 0)
(580 1.45572e-12 0)
(580 4.25981e-13 0)
(580 -1.61577e-13 0)
(580 -5.53227e-13 0)
(580 -7.72597e-13 0)
(580 -9.92366e-13 0)
(580 -8.77899e-13 0)
(580 -6.55439e-13 0)
(580 -4.64344e-13 0)
(580 -3.35971e-13 0)
(580 -6.95534e-14 0)
(580 2.53853e-13 0)
(580 3.30679e-13 0)
(580 8.3045e-13 0)
(580 9.90559e-13 0)
(580 1.04454e-12 0)
(580 6.55312e-13 0)
(580 9.05288e-14 0)
(580 9.9728e-17 0)
(580 5.32766e-13 0)
(580 4.03783e-13 0)
(580 -4.29291e-14 0)
(580 -2.57108e-13 0)
(580 -2.72871e-13 0)
(580 -4.10516e-13 0)
(580 -3.17139e-13 0)
(580 3.25478e-14 0)
(580 -1.25299e-13 0)
(580 -3.58571e-13 0)
(580 -4.23377e-13 0)
(580 -3.70136e-13 0)
(580 -3.65774e-13 0)
(580 -3.2031e-13 0)
(580 -1.16334e-13 0)
(580 5.25037e-14 0)
(580 1.056e-13 0)
(580 1.32212e-13 0)
(580 2.25899e-13 0)
(580 2.60854e-13 0)
(580 1.5308e-13 0)
(580 1.30306e-13 0)
(580 4.13547e-14 0)
(580 6.83124e-14 0)
(580 7.54368e-14 0)
(580 5.0865e-14 0)
(580 -1.16436e-13 0)
(580 -2.03751e-13 0)
(580 -2.30758e-13 0)
(580 -3.01963e-13 0)
(580 -2.06415e-13 0)
(580 -1.50664e-13 0)
(580 -2.57803e-13 0)
(580 -3.14628e-13 0)
(580 3.40276e-15 0)
(580 3.58319e-13 0)
(580 8.1806e-13 0)
(580 8.85763e-13 0)
(580 7.51012e-13 0)
(580 6.10084e-13 0)
(580 6.49202e-13 0)
(580 9.59395e-13 0)
(580 1.2123e-12 0)
(580 1.07131e-12 0)
(580 9.57733e-13 0)
(580 5.97138e-13 0)
(580 4.03429e-13 0)
(580 3.17954e-13 0)
(580 2.82304e-13 0)
(580 3.95611e-13 0)
(580 6.62226e-13 0)
(580 8.44938e-13 0)
(580 8.93644e-13 0)
(580 1.02048e-12 0)
(580 1.18764e-12 0)
(580 1.27174e-12 0)
(580 1.27144e-12 0)
(580 1.2263e-12 0)
(580 1.13175e-12 0)
(580 1.20688e-12 0)
(580 1.14758e-12 0)
(580 1.07112e-12 0)
(580 1.07042e-12 0)
(580 7.70524e-13 0)
(580 3.41739e-13 0)
(580 -1.19545e-14 0)
(580 -6.23353e-14 0)
(580 -2.74434e-13 0)
(580 -2.98194e-13 0)
(580 -2.23086e-13 0)
(580 -2.34155e-13 0)
(580 -1.54047e-13 0)
(580 -7.67312e-14 0)
(580 -1.31987e-13 0)
(580 -1.39723e-13 0)
(580 2.13285e-13 0)
(580 3.11898e-13 0)
(580 4.73733e-13 0)
(580 6.31594e-13 0)
(580 7.28788e-13 0)
(580 7.95462e-13 0)
(580 8.11467e-13 0)
(580 9.11003e-13 0)
(580 7.71541e-13 0)
(580 6.59025e-13 0)
(580 2.75785e-13 0)
(580 1.86992e-13 0)
(580 -9.5641e-15 0)
(580 -7.56861e-15 0)
(580 -9.45401e-14 0)
(580 -2.57253e-13 0)
(580 -3.04427e-13 0)
(580 -3.43107e-13 0)
(580 -4.17522e-13 0)
(580 -2.46516e-13 0)
(580 -9.98044e-14 0)
(580 -1.04999e-13 0)
(580 -2.49935e-13 0)
(580 -3.60514e-13 0)
(580 -4.15923e-13 0)
(580 -6.1527e-13 0)
(580 -6.72893e-13 0)
(580 -6.1579e-13 0)
(580 -5.22755e-13 0)
(580 -4.3783e-13 0)
(580 -5.54235e-13 0)
(580 -5.61315e-13 0)
(580 -2.86538e-13 0)
(580 -1.61097e-13 0)
(580 -1.23545e-13 0)
(580 -5.18564e-14 0)
(580 -2.91686e-13 0)
(580 -4.34362e-13 0)
(580 -5.81269e-13 0)
(580 -5.26023e-13 0)
(580 -2.671e-13 0)
(580 3.00159e-13 0)
(580 3.52839e-13 0)
(580 3.82136e-13 0)
(580 3.84444e-13 0)
(580 5.59323e-13 0)
(580 5.35836e-13 0)
(580 3.10573e-13 0)
(580 7.77913e-13 0)
(580 7.93397e-13 0)
(580 6.27337e-13 0)
(580 5.1317e-13 0)
(580 2.53917e-13 0)
(580 3.8936e-14 0)
(580 4.11725e-15 0)
(580 -1.31275e-13 0)
(580 -1.83756e-13 0)
(580 -1.29697e-13 0)
(580 3.55515e-13 0)
(580 3.64019e-13 0)
(580 5.32935e-13 0)
(580 8.02339e-13 0)
(580 6.50622e-13 0)
(580 2.02125e-13 0)
(580 -5.86787e-14 0)
(580 8.91441e-14 0)
(580 1.27081e-13 0)
(580 4.77815e-13 0)
(580 6.35399e-13 0)
(580 7.61418e-13 0)
(580 7.34141e-13 0)
(580 6.32262e-13 0)
(580 6.7054e-13 0)
(580 2.68945e-13 0)
(580 2.27289e-13 0)
(580 5.73205e-14 0)
(580 -3.53544e-13 0)
(580 -6.31786e-13 0)
(580 -5.76802e-13 0)
(580 -4.21846e-13 0)
(580 -2.27198e-13 0)
(580 8.93614e-14 0)
(580 1.00753e-12 0)
(580 1.4071e-12 0)
(580 1.37485e-12 0)
(580 1.19555e-12 0)
(580 9.34827e-13 0)
(580 1.15055e-12 0)
(580 1.70327e-12 0)
(580 1.67847e-12 0)
(580 1.44185e-12 0)
(580 1.1724e-12 0)
(580 2.4065e-14 0)
(580 9.74182e-14 0)
(580 1.43624e-13 0)
(580 1.50976e-13 0)
(580 1.85806e-13 0)
(580 2.65371e-13 0)
(580 2.70513e-13 0)
(580 5.8518e-14 0)
(580 -8.69672e-14 0)
(580 -6.27975e-14 0)
(580 -3.02309e-14 0)
(580 -1.84182e-13 0)
(580 -2.49612e-13 0)
(580 -2.48841e-13 0)
(580 -2.09747e-13 0)
(580 -2.04389e-13 0)
(580 -3.37521e-13 0)
(580 -4.0747e-13 0)
(580 -4.20814e-13 0)
(580 -3.48444e-13 0)
(580 -2.47053e-13 0)
(580 -1.7046e-13 0)
(580 8.51598e-14 0)
(580 1.06378e-14 0)
(580 -1.93987e-13 0)
(580 -3.22598e-13 0)
(580 -5.34997e-13 0)
(580 -7.21492e-13 0)
(580 -6.94986e-13 0)
(580 -7.16723e-13 0)
(580 -6.38548e-13 0)
(580 -2.94993e-13 0)
(580 1.13647e-13 0)
(580 3.5581e-14 0)
(580 -2.74986e-13 0)
(580 -5.88623e-13 0)
(580 -3.78294e-13 0)
(580 -2.53614e-13 0)
(580 -2.30694e-13 0)
(580 -3.35867e-13 0)
(580 -5.92317e-13 0)
(580 -7.25293e-13 0)
(580 -7.44515e-13 0)
(580 -7.39812e-13 0)
(580 -7.26322e-13 0)
(580 -5.47178e-13 0)
(580 -5.01379e-13 0)
(580 -4.26888e-13 0)
(580 -2.16643e-13 0)
(580 -9.4755e-14 0)
(580 -2.30166e-14 0)
(580 -5.7714e-14 0)
(580 -2.41219e-13 0)
(580 -3.39345e-13 0)
(580 -5.52303e-13 0)
(580 -3.37463e-13 0)
(580 3.2527e-13 0)
(580 7.57629e-13 0)
(580 1.00509e-12 0)
(580 1.0004e-12 0)
(580 9.99226e-13 0)
(580 5.6344e-13 0)
(580 4.33546e-13 0)
(580 2.30191e-13 0)
(580 -2.42187e-13 0)
(580 -4.70927e-13 0)
(580 -5.39819e-13 0)
(580 -4.46883e-13 0)
(580 -4.73225e-14 0)
(580 5.81444e-13 0)
(580 1.01557e-12 0)
(580 1.15444e-12 0)
(580 1.29678e-12 0)
(580 1.56371e-12 0)
(580 1.75795e-12 0)
(580 1.97511e-12 0)
(580 1.86354e-12 0)
(580 1.76625e-12 0)
(580 1.55583e-12 0)
(580 1.20949e-12 0)
(580 7.07307e-14 0)
(580 2.0427e-13 0)
(580 5.24632e-13 0)
(580 6.45931e-13 0)
(580 7.23632e-13 0)
(580 9.82929e-13 0)
(580 9.87839e-13 0)
(580 7.60868e-13 0)
(580 2.76001e-13 0)
(580 1.82494e-13 0)
(580 2.68886e-13 0)
(580 2.7996e-13 0)
(580 2.70457e-13 0)
(580 2.95083e-13 0)
(580 2.78349e-13 0)
(580 2.25116e-13 0)
(580 7.1996e-14 0)
(580 -2.8594e-13 0)
(580 -7.7833e-13 0)
(580 -8.23846e-13 0)
(580 -7.55429e-13 0)
(580 -7.51333e-13 0)
(580 -5.80449e-13 0)
(580 -2.81192e-13 0)
(580 -4.98957e-13 0)
(580 -6.17608e-13 0)
(580 -7.32959e-13 0)
(580 -9.59077e-13 0)
(580 -9.58015e-13 0)
(580 -9.37825e-13 0)
(580 -9.08593e-13 0)
(580 -8.38682e-13 0)
(580 -6.41767e-13 0)
(580 -5.81007e-13 0)
(580 -6.15749e-13 0)
(580 -6.42309e-13 0)
(580 -6.90165e-13 0)
(580 -6.85149e-13 0)
(580 -6.6168e-13 0)
(580 -6.92528e-13 0)
(580 -7.73323e-13 0)
(580 -8.28678e-13 0)
(580 -8.06558e-13 0)
(580 -6.68229e-13 0)
(580 -4.43432e-13 0)
(580 -3.81725e-13 0)
(580 -5.44052e-13 0)
(580 -5.22031e-13 0)
(580 -6.45659e-13 0)
(580 -7.44282e-13 0)
(580 -6.34157e-13 0)
(580 -3.33176e-13 0)
(580 -2.014e-13 0)
(580 -4.26033e-13 0)
(580 -7.54211e-13 0)
(580 -7.37807e-13 0)
(580 -4.88615e-13 0)
(580 -4.68047e-13 0)
(580 1.55798e-13 0)
(580 3.91711e-13 0)
(580 5.5335e-13 0)
(580 2.16163e-13 0)
(580 -3.42726e-14 0)
(580 -1.74932e-13 0)
(580 -3.97005e-13 0)
(580 -4.60795e-13 0)
(580 -4.04002e-13 0)
(580 -1.81495e-13 0)
(580 -1.83028e-13 0)
(580 1.81087e-13 0)
(580 1.77902e-13 0)
(580 6.16614e-13 0)
(580 1.38141e-12 0)
(580 1.83927e-12 0)
(580 2.04699e-12 0)
(580 2.01931e-12 0)
(580 1.94428e-12 0)
(580 1.92009e-12 0)
(580 1.87468e-12 0)
(580 1.80588e-12 0)
(580 -2.72023e-14 0)
(580 -8.73967e-14 0)
(580 2.94737e-14 0)
(580 1.92743e-13 0)
(580 2.90795e-13 0)
(580 4.86056e-13 0)
(580 5.21789e-13 0)
(580 3.67572e-13 0)
(580 4.66804e-13 0)
(580 4.05194e-13 0)
(580 2.53816e-13 0)
(580 1.77954e-13 0)
(580 2.95253e-14 0)
(580 -3.26961e-13 0)
(580 -7.56695e-13 0)
(580 -9.46649e-13 0)
(580 -1.04188e-12 0)
(580 -1.20413e-12 0)
(580 -1.26479e-12 0)
(580 -1.28134e-12 0)
(580 -1.21394e-12 0)
(580 -1.27588e-12 0)
(580 -1.20878e-12 0)
(580 -9.77567e-13 0)
(580 -8.4489e-13 0)
(580 -8.96066e-13 0)
(580 -8.05667e-13 0)
(580 -8.32136e-13 0)
(580 -1.04995e-12 0)
(580 -1.10143e-12 0)
(580 -1.11615e-12 0)
(580 -1.12687e-12 0)
(580 -1.29018e-12 0)
(580 -1.15985e-12 0)
(580 -9.79933e-13 0)
(580 -8.52183e-13 0)
(580 -8.67759e-13 0)
(580 -8.98372e-13 0)
(580 -8.88741e-13 0)
(580 -8.49831e-13 0)
(580 -7.91767e-13 0)
(580 -7.86e-13 0)
(580 -6.10628e-13 0)
(580 -2.84644e-13 0)
(580 -1.70083e-13 0)
(580 -1.91085e-13 0)
(580 -4.39048e-13 0)
(580 -6.456e-13 0)
(580 -1.24804e-12 0)
(580 -1.27393e-12 0)
(580 -1.52434e-12 0)
(580 -1.6122e-12 0)
(580 -1.3483e-12 0)
(580 -1.4204e-12 0)
(580 -1.90653e-12 0)
(580 -2.07835e-12 0)
(580 -1.90083e-12 0)
(580 -1.82476e-12 0)
(580 -1.22591e-12 0)
(580 -5.28863e-13 0)
(580 -2.40283e-13 0)
(580 -2.91794e-13 0)
(580 -7.07928e-13 0)
(580 -7.98979e-13 0)
(580 -6.99326e-13 0)
(580 -6.81447e-13 0)
(580 -4.83881e-13 0)
(580 -2.45202e-13 0)
(580 -1.35853e-14 0)
(580 1.81212e-13 0)
(580 3.06994e-13 0)
(580 5.22213e-13 0)
(580 6.21547e-13 0)
(580 4.74111e-13 0)
(580 5.88516e-13 0)
(580 6.86049e-13 0)
(580 8.04977e-13 0)
(580 8.68758e-13 0)
(580 9.39892e-13 0)
(580 8.73902e-13 0)
(580 -2.75835e-14 0)
(580 -5.35915e-14 0)
(580 -6.82856e-14 0)
(580 -2.39273e-14 0)
(580 -8.04711e-14 0)
(580 -1.70932e-13 0)
(580 -2.2807e-13 0)
(580 -1.28549e-13 0)
(580 -1.82831e-14 0)
(580 -5.70214e-14 0)
(580 -1.91105e-13 0)
(580 -4.36876e-13 0)
(580 -8.14795e-13 0)
(580 -9.39002e-13 0)
(580 -1.10306e-12 0)
(580 -1.17795e-12 0)
(580 -1.1185e-12 0)
(580 -1.0505e-12 0)
(580 -7.00941e-13 0)
(580 -7.17435e-13 0)
(580 -1.15278e-12 0)
(580 -1.24656e-12 0)
(580 -1.28051e-12 0)
(580 -1.43759e-12 0)
(580 -1.33386e-12 0)
(580 -1.14733e-12 0)
(580 -1.10759e-12 0)
(580 -9.05233e-13 0)
(580 -9.55461e-13 0)
(580 -1.45102e-12 0)
(580 -1.66838e-12 0)
(580 -1.89286e-12 0)
(580 -2.00497e-12 0)
(580 -2.12878e-12 0)
(580 -1.88809e-12 0)
(580 -1.86847e-12 0)
(580 -1.87251e-12 0)
(580 -1.74366e-12 0)
(580 -1.58808e-12 0)
(580 -1.51641e-12 0)
(580 -1.31219e-12 0)
(580 -8.3859e-13 0)
(580 -5.70784e-13 0)
(580 -5.97996e-13 0)
(580 -6.08645e-13 0)
(580 -9.57769e-13 0)
(580 -1.47608e-12 0)
(580 -1.92667e-12 0)
(580 -2.08915e-12 0)
(580 -2.38173e-12 0)
(580 -2.76524e-12 0)
(580 -2.98312e-12 0)
(580 -2.79103e-12 0)
(580 -3.15227e-12 0)
(580 -3.47986e-12 0)
(580 -3.42075e-12 0)
(580 -3.11062e-12 0)
(580 -2.79239e-12 0)
(580 -2.25261e-12 0)
(580 -1.50785e-12 0)
(580 -1.31413e-12 0)
(580 -1.10254e-12 0)
(580 -9.82117e-13 0)
(580 -6.80809e-13 0)
(580 -2.31117e-13 0)
(580 -2.05933e-14 0)
(580 5.29691e-14 0)
(580 1.66397e-13 0)
(580 -2.3764e-13 0)
(580 -2.76111e-13 0)
(580 2.97046e-14 0)
(580 -1.57632e-13 0)
(580 -4.53855e-13 0)
(580 -4.48869e-13 0)
(580 -2.41714e-13 0)
(580 -2.09825e-13 0)
(580 -3.23069e-13 0)
(580 -4.66281e-13 0)
(580 -4.8395e-13 0)
(580 -4.60523e-13 0)
(580 5.29085e-14 0)
(580 2.54677e-13 0)
(580 2.23045e-13 0)
(580 1.02847e-13 0)
(580 -9.6559e-14 0)
(580 -5.33483e-13 0)
(580 -7.45249e-13 0)
(580 -6.07787e-13 0)
(580 -6.48485e-13 0)
(580 -8.51784e-13 0)
(580 -9.39481e-13 0)
(580 -1.00902e-12 0)
(580 -9.69541e-13 0)
(580 -9.19177e-13 0)
(580 -6.43863e-13 0)
(580 -6.46455e-13 0)
(580 -3.47959e-13 0)
(580 -1.79677e-13 0)
(580 -3.37804e-14 0)
(580 -8.56801e-14 0)
(580 -3.37181e-13 0)
(580 -6.4367e-13 0)
(580 -1.07421e-12 0)
(580 -1.5398e-12 0)
(580 -1.76822e-12 0)
(580 -1.61146e-12 0)
(580 -1.57402e-12 0)
(580 -1.49502e-12 0)
(580 -1.54486e-12 0)
(580 -1.54686e-12 0)
(580 -1.65417e-12 0)
(580 -1.84434e-12 0)
(580 -2.05277e-12 0)
(580 -2.10408e-12 0)
(580 -2.03443e-12 0)
(580 -2.09795e-12 0)
(580 -1.73971e-12 0)
(580 -1.46465e-12 0)
(580 -1.20683e-12 0)
(580 -7.57149e-13 0)
(580 -7.41148e-13 0)
(580 -1.11341e-12 0)
(580 -1.30993e-12 0)
(580 -1.58215e-12 0)
(580 -1.78007e-12 0)
(580 -2.07288e-12 0)
(580 -2.05736e-12 0)
(580 -2.18597e-12 0)
(580 -2.39221e-12 0)
(580 -2.67354e-12 0)
(580 -2.81567e-12 0)
(580 -2.96973e-12 0)
(580 -3.00101e-12 0)
(580 -2.84188e-12 0)
(580 -2.64087e-12 0)
(580 -2.5095e-12 0)
(580 -2.63192e-12 0)
(580 -2.96277e-12 0)
(580 -2.53458e-12 0)
(580 -2.38613e-12 0)
(580 -2.01626e-12 0)
(580 -1.74875e-12 0)
(580 -1.19311e-12 0)
(580 -8.5565e-13 0)
(580 -4.56548e-13 0)
(580 -7.53221e-14 0)
(580 4.18845e-13 0)
(580 3.33412e-13 0)
(580 -8.16119e-14 0)
(580 -2.37857e-13 0)
(580 6.94654e-14 0)
(580 3.16138e-13 0)
(580 2.41495e-13 0)
(580 2.62784e-13 0)
(580 2.37947e-13 0)
(580 2.62313e-13 0)
(580 3.52238e-13 0)
(580 2.89205e-13 0)
(580 1.64103e-13 0)
(580 2.285e-13 0)
(580 -6.28171e-15 0)
(580 8.58521e-15 0)
(580 -4.71977e-14 0)
(580 -4.59425e-14 0)
(580 -6.71733e-14 0)
(580 -1.84577e-13 0)
(580 -2.53615e-13 0)
(580 -3.72348e-13 0)
(580 -4.70309e-13 0)
(580 -5.99407e-13 0)
(580 -8.14672e-13 0)
(580 -8.47807e-13 0)
(580 -6.89303e-13 0)
(580 -7.1711e-13 0)
(580 -7.33122e-13 0)
(580 -7.67502e-13 0)
(580 -7.06151e-13 0)
(580 -5.75854e-13 0)
(580 -5.64137e-13 0)
(580 -5.45186e-13 0)
(580 -4.73936e-13 0)
(580 -6.27539e-13 0)
(580 -1.09768e-12 0)
(580 -1.49835e-12 0)
(580 -1.52346e-12 0)
(580 -1.43657e-12 0)
(580 -1.24407e-12 0)
(580 -1.33951e-12 0)
(580 -1.46122e-12 0)
(580 -1.50388e-12 0)
(580 -1.50071e-12 0)
(580 -1.55818e-12 0)
(580 -1.54378e-12 0)
(580 -1.52209e-12 0)
(580 -1.61389e-12 0)
(580 -1.65594e-12 0)
(580 -1.64258e-12 0)
(580 -1.52863e-12 0)
(580 -1.30762e-12 0)
(580 -1.21675e-12 0)
(580 -1.23518e-12 0)
(580 -1.53666e-12 0)
(580 -1.92408e-12 0)
(580 -2.06745e-12 0)
(580 -2.06855e-12 0)
(580 -1.96765e-12 0)
(580 -1.95224e-12 0)
(580 -1.83667e-12 0)
(580 -1.79667e-12 0)
(580 -1.89909e-12 0)
(580 -1.95712e-12 0)
(580 -2.06293e-12 0)
(580 -2.05614e-12 0)
(580 -1.9938e-12 0)
(580 -1.96889e-12 0)
(580 -2.00889e-12 0)
(580 -2.1331e-12 0)
(580 -2.18824e-12 0)
(580 -2.14079e-12 0)
(580 -1.94014e-12 0)
(580 -1.98134e-12 0)
(580 -2.0162e-12 0)
(580 -1.75582e-12 0)
(580 -1.48657e-12 0)
(580 -1.16866e-12 0)
(580 -1.05643e-12 0)
(580 -6.64369e-13 0)
(580 -6.37344e-13 0)
(580 -6.76151e-13 0)
(580 -7.65153e-13 0)
(580 -8.04837e-13 0)
(580 -8.52959e-13 0)
(580 -7.79415e-13 0)
(580 -6.10781e-13 0)
(580 -4.11686e-13 0)
(580 -2.27659e-13 0)
(580 1.49506e-14 0)
(580 1.04754e-14 0)
(580 -6.33775e-14 0)
(580 2.12491e-13 0)
(580 -6.54625e-14 0)
(580 -2.90189e-13 0)
(580 -4.13884e-13 0)
(580 -3.66473e-13 0)
(580 -3.45948e-13 0)
(580 -2.4832e-13 0)
(580 -8.3756e-14 0)
(580 -9.74314e-14 0)
(580 -1.29022e-14 0)
(580 1.31858e-13 0)
(580 7.65949e-14 0)
(580 -2.21552e-14 0)
(580 -2.28757e-13 0)
(580 -4.38357e-13 0)
(580 -5.27504e-13 0)
(580 -4.93944e-13 0)
(580 -6.39334e-13 0)
(580 -6.75214e-13 0)
(580 -8.17221e-13 0)
(580 -8.31345e-13 0)
(580 -7.80677e-13 0)
(580 -8.33946e-13 0)
(580 -8.72657e-13 0)
(580 -9.63134e-13 0)
(580 -1.07325e-12 0)
(580 -1.26577e-12 0)
(580 -1.29268e-12 0)
(580 -1.21752e-12 0)
(580 -1.21437e-12 0)
(580 -1.27635e-12 0)
(580 -1.50742e-12 0)
(580 -1.50445e-12 0)
(580 -1.58828e-12 0)
(580 -1.67253e-12 0)
(580 -1.78748e-12 0)
(580 -1.93761e-12 0)
(580 -2.11955e-12 0)
(580 -2.25307e-12 0)
(580 -2.28519e-12 0)
(580 -2.36643e-12 0)
(580 -2.31401e-12 0)
(580 -2.26597e-12 0)
(580 -2.1971e-12 0)
(580 -2.26033e-12 0)
(580 -2.33144e-12 0)
(580 -2.29612e-12 0)
(580 -2.44107e-12 0)
(580 -2.57151e-12 0)
(580 -2.64989e-12 0)
(580 -2.66716e-12 0)
(580 -2.65068e-12 0)
(580 -2.70794e-12 0)
(580 -2.70154e-12 0)
(580 -2.81952e-12 0)
(580 -2.8574e-12 0)
(580 -2.86407e-12 0)
(580 -2.89121e-12 0)
(580 -2.96538e-12 0)
(580 -3.12534e-12 0)
(580 -3.07739e-12 0)
(580 -3.14766e-12 0)
(580 -3.25495e-12 0)
(580 -3.40193e-12 0)
(580 -3.66882e-12 0)
(580 -3.81006e-12 0)
(580 -3.76532e-12 0)
(580 -3.58244e-12 0)
(580 -3.19679e-12 0)
(580 -2.51346e-12 0)
(580 -2.16884e-12 0)
(580 -2.22993e-12 0)
(580 -2.45861e-12 0)
(580 -2.38604e-12 0)
(580 -2.36095e-12 0)
(580 -2.43301e-12 0)
(580 -2.34641e-12 0)
(580 -2.10738e-12 0)
(580 -1.84697e-12 0)
(580 -1.64669e-12 0)
(580 -1.32122e-12 0)
(580 -1.87577e-14 0)
(580 2.53575e-14 0)
(580 1.54101e-13 0)
(580 9.37236e-14 0)
(580 5.6291e-14 0)
(580 2.31706e-13 0)
(580 4.07949e-13 0)
(580 4.50457e-13 0)
(580 4.05479e-13 0)
(580 3.4318e-13 0)
(580 5.18928e-13 0)
(580 6.31416e-13 0)
(580 4.38872e-13 0)
(580 3.8269e-13 0)
(580 3.06906e-13 0)
(580 1.78684e-13 0)
(580 -9.74458e-15 0)
(580 -3.08259e-13 0)
(580 -4.2786e-13 0)
(580 -5.87071e-13 0)
(580 -8.65462e-13 0)
(580 -9.89984e-13 0)
(580 -9.88869e-13 0)
(580 -1.09243e-12 0)
(580 -1.08322e-12 0)
(580 -1.33589e-12 0)
(580 -1.45012e-12 0)
(580 -1.51237e-12 0)