/*--------------------------------*- C++ -*----------------------------------*\
| =========                 |                                                 |
| \\      /  F ield         | OpenFOAM: The Open Source CFD Toolbox           |
|  \\    /   O peration     | Version:  2306                                  |
|   \\  /    A nd           | Website:  www.openfoam.com                      |
|    \\/     M anipulation  |                                                 |
\*---------------------------------------------------------------------------*/
FoamFile
{
    version     2.0;
    format      ascii;
    arch        "LSB;label=32;scalar=64";
    class       volVectorField;
    location    "5e-05";
    object      U;
}
// * * * * * * * * * * * * * * * * * * * * * * * * * * * * * * * * * * * * * //

dimensions      [0 1 -1 0 0 0 0];

internalField   nonuniform List<vector> 
9044
(
(580 5.27503e-13 0)
(580 5.46964e-13 0)
(580 5.57463e-13 0)
(580 7.62406e-13 0)
(580 6.49887e-13 0)
(580 6.45826e-13 0)
(580 1.55312e-12 0)
(580 1.41863e-12 0)
(580 1.77208e-12 0)
(580 1.79998e-12 0)
(580 -2.58293e-13 0)
(580 -2.26487e-13 0)
(580 -2.64042e-12 0)
(580 -2.85925e-12 0)
(580 -2.82475e-12 0)
(580 -2.96712e-12 0)
(580 -1.28753e-12 0)
(580 -1.28594e-12 0)
(580 -6.75663e-13 0)
(580 -5.60889e-13 0)
(580 1.11467e-13 0)
(580 2.95545e-13 0)
(580 1.3681e-12 0)
(580 1.21255e-12 0)
(580 1.61714e-12 0)
(580 1.41632e-12 0)
(580 1.88506e-12 0)
(580 2.03586e-12 0)
(580 1.38267e-12 0)
(580 1.45652e-12 0)
(580 7.96734e-13 0)
(580 8.48033e-13 0)
(580 5.88681e-12 0)
(580 5.7218e-12 0)
(580 5.72304e-12 0)
(580 5.43015e-12 0)
(580 4.82359e-12 0)
(580 4.29258e-12 0)
(580 3.71535e-12 0)
(580 3.424e-12 0)
(580 3.17162e-12 0)
(580 2.58767e-12 0)
(580 2.56869e-12 0)
(580 2.87111e-12 0)
(580 2.13404e-12 0)
(580 2.70538e-12 0)
(580 2.90942e-12 0)
(580 2.98893e-12 0)
(580 3.26245e-12 0)
(580 3.93003e-12 0)
(580 4.1153e-12 0)
(580 3.45555e-12 0)
(580 3.24509e-12 0)
(580 3.17449e-12 0)
(580 3.32584e-12 0)
(580 2.99172e-12 0)
(580 2.5326e-12 0)
(580 2.51492e-12 0)
(580 3.5278e-12 0)
(580 4.84806e-12 0)
(580 4.92017e-12 0)
(580 4.74056e-12 0)
(580 4.69235e-12 0)
(580 4.68773e-12 0)
(580 4.80262e-12 0)
(580 4.83718e-12 0)
(580 4.13234e-12 0)
(580 3.80733e-12 0)
(580 3.80541e-12 0)
(580 3.6984e-12 0)
(580 3.93178e-12 0)
(580 4.68772e-12 0)
(580 4.62999e-12 0)
(580 4.53583e-12 0)
(580 4.4651e-12 0)
(580 4.23692e-12 0)
(580 3.16606e-12 0)
(580 2.94108e-12 0)
(580 3.03825e-12 0)
(580 3.46619e-12 0)
(580 3.79246e-12 0)
(580 4.02793e-12 0)
(580 4.458e-12 0)
(580 4.48936e-12 0)
(580 4.27226e-12 0)
(580 4.30922e-12 0)
(580 4.15256e-12 0)
(580 3.72587e-12 0)
(580 3.6472e-12 0)
(580 3.27722e-12 0)
(580 2.9334e-12 0)
(580 2.58985e-12 0)
(580 2.44881e-12 0)
(580 2.22586e-12 0)
(580 2.11046e-12 0)
(580 2.13197e-12 0)
(580 2.38048e-12 0)
(580 2.84172e-12 0)
(580 3.78347e-12 0)
(580 4.69451e-12 0)
(580 5.0296e-12 0)
(580 5.87006e-12 0)
(580 6.13398e-12 0)
(580 6.05587e-12 0)
(580 5.79025e-12 0)
(580 5.59151e-12 0)
(580 5.07358e-12 0)
(580 4.78226e-12 0)
(580 4.22943e-12 0)
(580 3.02926e-12 0)
(580 2.06344e-12 0)
(580 2.15614e-12 0)
(580 1.45262e-12 0)
(580 9.23578e-13 0)
(580 1.63298e-12 0)
(580 1.78545e-12 0)
(580 2.52352e-12 0)
(580 3.44587e-12 0)
(580 3.92946e-12 0)
(580 4.45226e-12 0)
(580 4.5793e-12 0)
(580 4.49397e-12 0)
(580 4.65142e-12 0)
(580 4.06813e-12 0)
(580 3.53271e-12 0)
(580 2.7357e-12 0)
(580 2.35172e-12 0)
(580 2.34694e-12 0)
(580 2.62038e-12 0)
(580 2.74326e-12 0)
(580 3.50395e-12 0)
(580 3.73591e-12 0)
(580 3.71409e-12 0)
(580 3.56299e-12 0)
(580 3.36673e-12 0)
(580 3.30291e-12 0)
(580 3.20847e-12 0)
(580 3.03162e-12 0)
(580 2.98181e-12 0)
(580 2.97971e-12 0)
(580 3.68738e-12 0)
(580 4.1838e-12 0)
(580 4.0213e-12 0)
(580 3.97558e-12 0)
(580 4.03543e-12 0)
(580 3.76802e-12 0)
(580 2.76308e-12 0)
(580 2.78392e-12 0)
(580 2.81787e-12 0)
(580 2.84631e-12 0)
(580 3.03581e-12 0)
(580 3.5089e-12 0)
(580 4.02498e-12 0)
(580 3.87911e-12 0)
(580 3.89106e-12 0)
(580 3.93886e-12 0)
(580 3.85405e-12 0)
(580 3.31626e-12 0)
(580 3.13888e-12 0)
(580 3.36236e-12 0)
(580 3.32597e-12 0)
(580 3.23294e-12 0)
(580 2.92162e-12 0)
(580 2.70321e-12 0)
(580 2.59852e-12 0)
(580 1.97236e-12 0)
(580 1.16147e-12 0)
(580 1.50336e-12 0)
(580 2.29087e-12 0)
(580 2.63076e-12 0)
(580 3.12907e-12 0)
(580 3.52052e-12 0)
(580 4.50496e-12 0)
(580 5.21858e-12 0)
(580 5.28433e-12 0)
(580 5.19388e-12 0)
(580 4.96117e-12 0)
(580 4.61088e-12 0)
(580 4.54616e-12 0)
(580 4.00932e-12 0)
(580 3.25469e-12 0)
(580 3.55504e-12 0)
(580 2.64732e-12 0)
(580 1.30811e-12 0)
(580 2.46316e-12 0)
(580 2.475e-12 0)
(580 2.70997e-12 0)
(580 2.75857e-12 0)
(580 3.31103e-12 0)
(580 3.79648e-12 0)
(580 4.11331e-12 0)
(580 3.75752e-12 0)
(580 3.63017e-12 0)
(580 3.39824e-12 0)
(580 3.13617e-12 0)
(580 3.00565e-12 0)
(580 2.90861e-12 0)
(580 2.91049e-12 0)
(580 2.63658e-12 0)
(580 2.19198e-12 0)
(580 2.34572e-12 0)
(580 2.48892e-12 0)
(580 2.65459e-12 0)
(580 2.78646e-12 0)
(580 2.28537e-12 0)
(580 2.05506e-12 0)
(580 2.15037e-12 0)
(580 2.38437e-12 0)
(580 2.49309e-12 0)
(580 2.86705e-12 0)
(580 2.69401e-12 0)
(580 2.27495e-12 0)
(580 3.02701e-12 0)
(580 3.4758e-12 0)
(580 4.01062e-12 0)
(580 4.04153e-12 0)
(580 3.96775e-12 0)
(580 3.75401e-12 0)
(580 3.11275e-12 0)
(580 2.81479e-12 0)
(580 2.29779e-12 0)
(580 2.54102e-12 0)
(580 2.9977e-12 0)
(580 3.85995e-12 0)
(580 4.10484e-12 0)
(580 4.16441e-12 0)
(580 3.722e-12 0)
(580 3.39606e-12 0)
(580 2.81574e-12 0)
(580 2.61655e-12 0)
(580 2.49581e-12 0)
(580 2.61752e-12 0)
(580 2.69975e-12 0)
(580 2.7736e-12 0)
(580 2.61815e-12 0)
(580 2.27717e-12 0)
(580 2.27632e-12 0)
(580 1.91144e-12 0)
(580 1.91877e-12 0)
(580 2.14332e-12 0)
(580 2.76546e-12 0)
(580 3.02579e-12 0)
(580 3.751e-12 0)
(580 5.06969e-12 0)
(580 5.30667e-12 0)
(580 5.12988e-12 0)
(580 4.76804e-12 0)
(580 4.42097e-12 0)
(580 3.96135e-12 0)
(580 3.90926e-12 0)
(580 4.13545e-12 0)
(580 4.39021e-12 0)
(580 2.91577e-12 0)
(580 1.85464e-12 0)
(580 3.00596e-12 0)
(580 3.01552e-12 0)
(580 2.75985e-12 0)
(580 2.83007e-12 0)
(580 2.76248e-12 0)
(580 2.72137e-12 0)
(580 2.37864e-12 0)
(580 2.31373e-12 0)
(580 1.97929e-12 0)
(580 1.93884e-12 0)
(580 2.01618e-12 0)
(580 2.23725e-12 0)
(580 2.57627e-12 0)
(580 2.6896e-12 0)
(580 2.46072e-12 0)
(580 2.59899e-12 0)
(580 1.9252e-12 0)
(580 1.6736e-12 0)
(580 1.42876e-12 0)
(580 1.40397e-12 0)
(580 1.48108e-12 0)
(580 1.57129e-12 0)
(580 1.52982e-12 0)
(580 1.54601e-12 0)
(580 1.79765e-12 0)
(580 2.01068e-12 0)
(580 1.50761e-12 0)
(580 1.86357e-12 0)
(580 2.4459e-12 0)
(580 2.98608e-12 0)
(580 3.22003e-12 0)
(580 3.42788e-12 0)
(580 3.43263e-12 0)
(580 3.53959e-12 0)
(580 3.16138e-12 0)
(580 2.69082e-12 0)
(580 2.31059e-12 0)
(580 2.38149e-12 0)
(580 2.91222e-12 0)
(580 3.29365e-12 0)
(580 3.78439e-12 0)
(580 3.8589e-12 0)
(580 3.31701e-12 0)
(580 3.19938e-12 0)
(580 2.85534e-12 0)
(580 2.45371e-12 0)
(580 2.12266e-12 0)
(580 1.72209e-12 0)
(580 1.66446e-12 0)
(580 1.14749e-12 0)
(580 8.1736e-13 0)
(580 9.75596e-13 0)
(580 1.6492e-12 0)
(580 1.97597e-12 0)
(580 1.21572e-12 0)
(580 1.32323e-12 0)
(580 1.3803e-12 0)
(580 1.24965e-12 0)
(580 1.51675e-12 0)
(580 2.54983e-12 0)
(580 2.88923e-12 0)
(580 3.99627e-12 0)
(580 5.14742e-12 0)
(580 4.87322e-12 0)
(580 4.63418e-12 0)
(580 4.39196e-12 0)
(580 4.50109e-12 0)
(580 4.41224e-12 0)
(580 3.65636e-12 0)
(580 2.83357e-12 0)
(580 2.8734e-12 0)
(580 2.60164e-12 0)
(580 2.26655e-12 0)
(580 1.85406e-12 0)
(580 1.4476e-12 0)
(580 1.16354e-12 0)
(580 1.07851e-12 0)
(580 9.37525e-13 0)
(580 8.73328e-13 0)
(580 7.69185e-13 0)
(580 9.72912e-13 0)
(580 1.19169e-12 0)
(580 1.24675e-12 0)
(580 1.33863e-12 0)
(580 1.4868e-12 0)
(580 1.60644e-12 0)
(580 1.3146e-12 0)
(580 9.0746e-13 0)
(580 2.0723e-13 0)
(580 3.62914e-14 0)
(580 -1.33509e-15 0)
(580 8.02897e-15 0)
(580 5.41194e-14 0)
(580 1.18723e-13 0)
(580 2.48364e-13 0)
(580 2.74272e-13 0)
(580 4.46667e-13 0)
(580 1.01771e-12 0)
(580 1.47355e-12 0)
(580 1.9679e-12 0)
(580 2.24549e-12 0)
(580 2.3165e-12 0)
(580 2.20362e-12 0)
(580 1.9123e-12 0)
(580 1.75991e-12 0)
(580 1.75566e-12 0)
(580 1.35107e-12 0)
(580 7.12558e-13 0)
(580 1.64566e-12 0)
(580 2.48747e-12 0)
(580 2.73814e-12 0)
(580 3.37625e-12 0)
(580 3.59726e-12 0)
(580 3.76492e-12 0)
(580 3.2193e-12 0)
(580 2.8563e-12 0)
(580 2.58638e-12 0)
(580 1.87023e-12 0)
(580 1.32792e-12 0)
(580 1.10175e-12 0)
(580 1.40901e-12 0)
(580 1.80676e-12 0)
(580 1.99085e-12 0)
(580 2.4169e-12 0)
(580 2.20995e-12 0)
(580 1.33296e-12 0)
(580 8.72505e-13 0)
(580 1.02006e-12 0)
(580 1.39006e-12 0)
(580 1.88718e-12 0)
(580 1.96044e-12 0)
(580 2.39734e-12 0)
(580 3.67941e-12 0)
(580 4.63443e-12 0)
(580 4.65191e-12 0)
(580 4.54889e-12 0)
(580 4.39463e-12 0)
(580 3.99186e-12 0)
(580 3.64023e-12 0)
(580 2.82479e-12 0)
(580 2.40225e-12 0)
(580 2.06302e-12 0)
(580 1.72248e-12 0)
(580 1.35009e-12 0)
(580 1.14502e-12 0)
(580 8.57601e-13 0)
(580 4.8014e-13 0)
(580 3.03089e-13 0)
(580 -1.63656e-13 0)
(580 -9.26159e-14 0)
(580 8.96653e-14 0)
(580 1.25151e-13 0)
(580 2.90702e-13 0)
(580 6.24678e-13 0)
(580 8.66857e-13 0)
(580 1.04538e-12 0)
(580 9.82097e-13 0)
(580 5.84727e-13 0)
(580 2.04801e-13 0)
(580 -1.8198e-14 0)
(580 -5.33614e-13 0)
(580 -6.33143e-13 0)
(580 -7.91242e-13 0)
(580 -1.10318e-12 0)
(580 -1.32804e-12 0)
(580 -1.42723e-12 0)
(580 -1.20908e-12 0)
(580 -9.45025e-13 0)
(580 -4.67857e-13 0)
(580 4.9934e-13 0)
(580 1.08163e-12 0)
(580 1.27012e-12 0)
(580 1.8529e-12 0)
(580 1.94119e-12 0)
(580 1.96082e-12 0)
(580 2.39258e-12 0)
(580 2.40861e-12 0)
(580 2.30435e-12 0)
(580 1.69224e-12 0)
(580 9.87639e-13 0)
(580 7.96858e-13 0)
(580 1.16219e-12 0)
(580 2.57761e-12 0)
(580 3.20934e-12 0)
(580 2.91837e-12 0)
(580 2.69394e-12 0)
(580 2.40453e-12 0)
(580 2.33899e-12 0)
(580 2.62911e-12 0)
(580 2.14913e-12 0)
(580 2.6098e-12 0)
(580 2.46392e-12 0)
(580 2.78333e-12 0)
(580 2.70028e-12 0)
(580 2.40576e-12 0)
(580 2.0799e-12 0)
(580 1.66933e-12 0)
(580 9.28673e-13 0)
(580 6.21294e-13 0)
(580 8.32902e-14 0)
(580 -2.32967e-13 0)
(580 1.53945e-14 0)
(580 4.78112e-13 0)
(580 6.94565e-13 0)
(580 1.92373e-12 0)
(580 3.00386e-12 0)
(580 2.94521e-12 0)
(580 2.55411e-12 0)
(580 2.23252e-12 0)
(580 1.59068e-12 0)
(580 1.85843e-12 0)
(580 1.57106e-12 0)
(580 9.90196e-13 0)
(580 9.37882e-13 0)
(580 8.35324e-13 0)
(580 6.23493e-13 0)
(580 2.98406e-13 0)
(580 2.74e-13 0)
(580 1.46638e-13 0)
(580 -1.14281e-13 0)
(580 -5.79371e-13 0)
(580 -8.38875e-13 0)
(580 -8.19358e-13 0)
(580 -7.78354e-13 0)
(580 -9.19246e-13 0)
(580 -9.79306e-13 0)
(580 -1.01568e-12 0)
(580 -1.21663e-12 0)
(580 -1.31189e-12 0)
(580 -1.09656e-12 0)
(580 -6.63329e-13 0)
(580 -6.71557e-13 0)
(580 -9.00752e-13 0)
(580 -9.3757e-13 0)
(580 -1.14148e-12 0)
(580 -1.2785e-12 0)
(580 -1.59578e-12 0)
(580 -1.60465e-12 0)
(580 -1.6946e-12 0)
(580 -1.88784e-12 0)
(580 -1.76523e-12 0)
(580 -1.34433e-12 0)
(580 -9.20303e-13 0)
(580 -5.07173e-13 0)
(580 -4.58572e-13 0)
(580 -2.78403e-13 0)
(580 -2.3356e-14 0)
(580 2.03219e-13 0)
(580 3.12059e-13 0)
(580 -1.24603e-13 0)
(580 -4.71476e-13 0)
(580 -4.22212e-13 0)
(580 -1.02635e-13 0)
(580 1.67161e-13 0)
(580 8.56755e-13 0)
(580 1.33073e-12 0)
(580 1.79598e-12 0)
(580 2.28725e-12 0)
(580 2.39365e-12 0)
(580 2.46815e-12 0)
(580 2.71511e-12 0)
(580 2.43272e-12 0)
(580 2.21613e-12 0)
(580 1.69085e-12 0)
(580 1.49743e-12 0)
(580 1.09007e-12 0)
(580 1.4917e-13 0)
(580 -1.97372e-13 0)
(580 -8.2394e-13 0)
(580 -1.08878e-12 0)
(580 -1.33073e-12 0)
(580 -1.20694e-12 0)
(580 -1.84792e-12 0)
(580 -1.91772e-12 0)
(580 -1.15494e-12 0)
(580 -3.36385e-13 0)
(580 9.65883e-13 0)
(580 9.27476e-13 0)
(580 1.22317e-12 0)
(580 9.65647e-13 0)
(580 1.88469e-12 0)
(580 1.79539e-12 0)
(580 1.75727e-12 0)
(580 1.44631e-12 0)
(580 1.16588e-12 0)
(580 7.89876e-13 0)
(580 4.36411e-13 0)
(580 1.71968e-13 0)
(580 1.61051e-13 0)
(580 1.56286e-13 0)
(580 -2.5124e-13 0)
(580 -1.80367e-13 0)
(580 -3.46089e-13 0)
(580 -3.4608e-13 0)
(580 -5.40522e-13 0)
(580 -6.04228e-13 0)
(580 -7.87861e-13 0)
(580 -8.04159e-13 0)
(580 -7.22764e-13 0)
(580 -1.09115e-12 0)
(580 -1.22298e-12 0)
(580 -1.12538e-12 0)
(580 -1.04795e-12 0)
(580 -9.79624e-13 0)
(580 -9.29093e-13 0)
(580 -1.00847e-12 0)
(580 -1.15248e-12 0)
(580 -1.32332e-12 0)
(580 -1.50461e-12 0)
(580 -1.56881e-12 0)
(580 -1.82927e-12 0)
(580 -2.0256e-12 0)
(580 -1.73315e-12 0)
(580 -1.11367e-12 0)
(580 -7.64669e-13 0)
(580 -6.18123e-13 0)
(580 -4.66541e-13 0)
(580 -2.79068e-13 0)
(580 -2.85485e-13 0)
(580 -3.96005e-13 0)
(580 -2.23359e-13 0)
(580 3.39489e-14 0)
(580 -5.83342e-14 0)
(580 -3.84086e-13 0)
(580 -4.71466e-13 0)
(580 -1.73878e-13 0)
(580 4.29456e-14 0)
(580 2.56368e-13 0)
(580 5.71973e-13 0)
(580 1.04665e-12 0)
(580 1.44683e-12 0)
(580 1.47631e-12 0)
(580 1.35705e-12 0)
(580 1.2711e-12 0)
(580 1.18184e-12 0)
(580 1.06227e-12 0)
(580 4.61552e-13 0)
(580 5.35438e-14 0)
(580 -4.57769e-13 0)
(580 -1.81334e-12 0)
(580 -2.37306e-12 0)
(580 -2.71789e-12 0)
(580 -2.66828e-12 0)
(580 -2.53564e-12 0)
(580 -2.13265e-12 0)
(580 -1.86861e-12 0)
(580 -1.46259e-12 0)
(580 -3.43104e-13 0)
(580 4.17288e-13 0)
(580 6.24602e-13 0)
(580 3.1893e-13 0)
(580 8.71104e-13 0)
(580 1.14655e-12 0)
(580 1.17878e-12 0)
(580 1.10618e-12 0)
(580 1.02293e-12 0)
(580 7.62986e-13 0)
(580 6.16908e-13 0)
(580 4.11117e-13 0)
(580 3.73951e-13 0)
(580 4.09268e-13 0)
(580 3.16457e-13 0)
(580 3.44303e-13 0)
(580 9.10826e-15 0)
(580 -4.68627e-14 0)
(580 -1.38663e-13 0)
(580 -3.11158e-13 0)
(580 -2.46509e-13 0)
(580 -4.05611e-13 0)
(580 -4.40005e-13 0)
(580 -5.12585e-13 0)
(580 -5.35768e-13 0)
(580 -6.45129e-13 0)
(580 -8.49092e-13 0)
(580 -1.0257e-12 0)
(580 -1.10523e-12 0)
(580 -1.20501e-12 0)
(580 -1.1652e-12 0)
(580 -1.16619e-12 0)
(580 -1.05078e-12 0)
(580 -1.12575e-12 0)
(580 -1.09679e-12 0)
(580 -1.16174e-12 0)
(580 -1.30881e-12 0)
(580 -1.31459e-12 0)
(580 -1.14892e-12 0)
(580 -9.66502e-13 0)
(580 -9.43154e-13 0)
(580 -8.17244e-13 0)
(580 -6.57593e-13 0)
(580 -5.77199e-13 0)
(580 -7.71014e-13 0)
(580 -9.0179e-13 0)
(580 -9.07816e-13 0)
(580 -1.03492e-12 0)
(580 -1.12458e-12 0)
(580 -1.16196e-12 0)
(580 -1.12171e-12 0)
(580 -1.00952e-12 0)
(580 -5.25651e-13 0)
(580 -5.24677e-13 0)
(580 -6.24541e-13 0)
(580 -5.13449e-13 0)
(580 -4.9872e-14 0)
(580 1.3686e-13 0)
(580 -2.06364e-13 0)
(580 -3.23638e-13 0)
(580 -3.12647e-13 0)
(580 -4.75587e-13 0)
(580 -1.05759e-12 0)
(580 -1.32984e-12 0)
(580 -1.61868e-12 0)
(580 -1.63011e-12 0)
(580 -1.53354e-12 0)
(580 -1.39747e-12 0)
(580 -1.50819e-12 0)
(580 -1.38e-12 0)
(580 -8.0425e-13 0)
(580 -3.55312e-14 0)
(580 4.95167e-13 0)
(580 -1.28422e-13 0)
(580 -1.69628e-13 0)
(580 -4.16144e-13 0)
(580 -5.20174e-13 0)
(580 -6.60684e-13 0)
(580 -7.08248e-13 0)
(580 -6.39626e-13 0)
(580 -4.70936e-13 0)
(580 -1.34653e-13 0)
(580 -2.01325e-14 0)
(580 4.88242e-13 0)
(580 5.01656e-13 0)
(580 4.29541e-13 0)
(580 3.52912e-13 0)
(580 3.69389e-13 0)
(580 3.0984e-13 0)
(580 2.75949e-13 0)
(580 2.52955e-13 0)
(580 3.62418e-14 0)
(580 6.74474e-15 0)
(580 -1.25447e-13 0)
(580 -3.59604e-13 0)
(580 -6.46215e-13 0)
(580 -8.6607e-13 0)
(580 -1.03048e-12 0)
(580 -9.55572e-13 0)
(580 -8.19159e-13 0)
(580 -7.42188e-13 0)
(580 -6.83106e-13 0)
(580 -7.05318e-13 0)
(580 -6.59084e-13 0)
(580 -6.36343e-13 0)
(580 -8.05738e-13 0)
(580 -1.00869e-12 0)
(580 -1.15448e-12 0)
(580 -1.48478e-12 0)
(580 -1.80566e-12 0)
(580 -1.58693e-12 0)
(580 -1.66123e-12 0)
(580 -1.9252e-12 0)
(580 -1.67001e-12 0)
(580 -1.69913e-12 0)
(580 -1.76015e-12 0)
(580 -1.81688e-12 0)
(580 -1.77314e-12 0)
(580 -1.73254e-12 0)
(580 -1.6244e-12 0)
(580 -1.60093e-12 0)
(580 -1.76801e-12 0)
(580 -1.87205e-12 0)
(580 -1.99113e-12 0)
(580 -2.12656e-12 0)
(580 -2.07979e-12 0)
(580 -1.94243e-12 0)
(580 -2.11505e-12 0)
(580 -1.93906e-12 0)
(580 -1.89069e-12 0)
(580 -1.78777e-12 0)
(580 -1.53562e-12 0)
(580 -1.39479e-12 0)
(580 -1.43808e-12 0)
(580 -1.40125e-12 0)
(580 -1.40843e-12 0)
(580 -1.66385e-12 0)
(580 -1.82009e-12 0)
(580 -1.79002e-12 0)
(580 -1.643e-12 0)
(580 -1.31392e-12 0)
(580 -1.19239e-12 0)
(580 -2.39101e-13 0)
(580 -2.13734e-12 0)
(580 -2.29995e-12 0)
(580 -2.48921e-12 0)
(580 -2.87997e-12 0)
(580 -2.84341e-12 0)
(580 -2.65754e-12 0)
(580 -2.41138e-12 0)
(580 -2.3096e-12 0)
(580 -2.25227e-12 0)
(580 -2.35071e-12 0)
(580 -2.6002e-12 0)
(580 -2.59898e-12 0)
(580 -2.74986e-12 0)
(580 -2.79349e-12 0)
(580 -2.90677e-12 0)
(580 -2.89062e-12 0)
(580 -2.48725e-12 0)
(580 -2.29401e-12 0)
(580 -1.86663e-12 0)
(580 -1.22122e-12 0)
(580 -8.73993e-13 0)
(580 -7.01715e-13 0)
(580 -7.06132e-13 0)
(580 -7.77633e-13 0)
(580 -1.1788e-12 0)
(580 -1.2769e-12 0)
(580 -1.05217e-12 0)
(580 -9.47146e-13 0)
(580 -1.00639e-12 0)
(580 -9.8562e-13 0)
(580 -8.24335e-13 0)
(580 -7.8955e-13 0)
(580 -8.00977e-13 0)
(580 -8.61281e-13 0)
(580 -9.28069e-13 0)
(580 -1.14624e-12 0)
(580 -1.31678e-12 0)
(580 -1.43773e-12 0)
(580 -1.5684e-12 0)
(580 -1.50491e-12 0)
(580 -2.0904e-12 0)
(580 -2.09232e-12 0)
(580 -1.87364e-12 0)
(580 -1.82538e-12 0)
(580 -1.77843e-12 0)
(580 -1.81627e-12 0)
(580 -1.86563e-12 0)
(580 -1.8739e-12 0)
(580 -2.09899e-12 0)
(580 -2.38177e-12 0)
(580 -3.05218e-12 0)
(580 -3.19074e-12 0)
(580 -3.32736e-12 0)
(580 -3.42281e-12 0)
(580 -3.29478e-12 0)
(580 -3.01923e-12 0)
(580 -2.75105e-12 0)
(580 -2.67262e-12 0)
(580 -2.62307e-12 0)
(580 -2.48045e-12 0)
(580 -2.68877e-12 0)
(580 -2.65855e-12 0)
(580 -2.43078e-12 0)
(580 -2.33605e-12 0)
(580 -2.14951e-12 0)
(580 -1.99613e-12 0)
(580 -1.56194e-12 0)
(580 -1.51468e-12 0)
(580 -1.45919e-12 0)
(580 -1.5432e-12 0)
(580 -4.1425e-12 0)
(580 -4.27724e-12 0)
(580 -4.18899e-12 0)
(580 -4.05675e-12 0)
(580 -3.88161e-12 0)
(580 -3.71702e-12 0)
(580 -3.50485e-12 0)
(580 -3.47931e-12 0)
(580 -3.71312e-12 0)
(580 -3.89098e-12 0)
(580 -3.96521e-12 0)
(580 -3.98604e-12 0)
(580 -4.06547e-12 0)
(580 -4.08872e-12 0)
(580 -4.1254e-12 0)
(580 -4.13909e-12 0)
(580 -4.19142e-12 0)
(580 -4.15397e-12 0)
(580 -3.98564e-12 0)
(580 -4.02077e-12 0)
(580 -4.33816e-12 0)
(580 -4.46654e-12 0)
(580 -4.47162e-12 0)
(580 -4.39333e-12 0)
(580 -4.01235e-12 0)
(580 -4.02514e-12 0)
(580 -4.07136e-12 0)
(580 -4.0256e-12 0)
(580 -3.89806e-12 0)
(580 -3.80791e-12 0)
(580 -3.89335e-12 0)
(580 -3.82722e-12 0)
(580 -3.44909e-12 0)
(580 -3.2471e-12 0)
(580 -3.09055e-12 0)
(580 -2.83282e-12 0)
(580 -2.51525e-12 0)
(580 -2.45269e-12 0)
(580 -2.37095e-12 0)
(580 -2.32025e-12 0)
(580 -2.25273e-12 0)
(580 -2.25821e-12 0)
(580 -2.47522e-12 0)
(580 -2.5551e-12 0)
(580 -2.61863e-12 0)
(580 -2.4026e-12 0)
(580 -2.35642e-12 0)
(580 -2.10374e-12 0)
(580 -1.667e-12 0)
(580 -1.56307e-12 0)
(580 -1.79401e-12 0)
(580 -1.88407e-12 0)
(580 -2.31878e-12 0)
(580 -2.55582e-12 0)
(580 -2.84307e-12 0)
(580 -2.80715e-12 0)
(580 -2.67492e-12 0)
(580 -2.80624e-12 0)
(580 -2.95486e-12 0)
(580 -2.93724e-12 0)
(580 -2.8212e-12 0)
(580 -2.80255e-12 0)
(580 -2.80528e-12 0)
(580 -2.59959e-12 0)
(580 -2.44826e-12 0)
(580 -2.71266e-12 0)
(580 -2.69397e-12 0)
(580 -2.67224e-12 0)
(580 -3.09886e-12 0)
(580 -3.40276e-12 0)
(580 -3.66378e-12 0)
(580 -3.56227e-12 0)
(580 -3.57781e-12 0)
(580 -3.47955e-12 0)
(580 -3.51922e-12 0)
(580 -3.49951e-12 0)
(580 -3.42025e-12 0)
(580 -3.23814e-12 0)
(580 -3.33605e-12 0)
(580 -3.17829e-12 0)
(580 -3.08461e-12 0)
(580 -2.89254e-12 0)
(580 -3.07592e-12 0)
(580 -3.17163e-12 0)
(580 -3.22278e-12 0)
(580 -3.52037e-12 0)
(580 -3.80925e-12 0)
(580 -4.02082e-12 0)
(580 -4.53938e-12 0)
(580 -4.71974e-12 0)
(580 -4.83116e-12 0)
(580 -4.83456e-12 0)
(580 -4.59344e-12 0)
(580 -4.636e-12 0)
(580 -4.41131e-12 0)
(580 -4.00345e-12 0)
(580 -3.99692e-12 0)
(580 -4.48875e-12 0)
(580 -4.67998e-12 0)
(580 -4.60365e-12 0)
(580 -4.53668e-12 0)
(580 -4.52709e-12 0)
(580 -4.58845e-12 0)
(580 -4.41667e-12 0)
(580 -4.182e-12 0)
(580 -4.09073e-12 0)
(580 -4.00032e-12 0)
(580 -3.91939e-12 0)
(580 -3.73842e-12 0)
(580 -3.62834e-12 0)
(580 -3.21184e-12 0)
(580 -3.04268e-12 0)
(580 -2.72762e-12 0)
(580 -2.68932e-12 0)
(580 -2.47306e-12 0)
(580 -2.50676e-12 0)
(580 -2.55877e-12 0)
(580 -2.66697e-12 0)
(580 -2.7106e-12 0)
(580 -2.65727e-12 0)
(580 -2.51571e-12 0)
(580 -2.27394e-12 0)
(580 -2.38682e-12 0)
(580 -2.47604e-12 0)
(580 -2.7143e-12 0)
(580 -2.85058e-12 0)
(580 -2.85318e-12 0)
(580 -2.84036e-12 0)
(580 -3.01171e-12 0)
(580 -3.0966e-12 0)
(580 -3.10989e-12 0)
(580 -3.07075e-12 0)
(580 -3.20816e-12 0)
(580 -3.26935e-12 0)
(580 -3.47759e-12 0)
(580 -3.96079e-12 0)
(580 -3.82223e-12 0)
(580 -3.42539e-12 0)
(580 -3.1487e-12 0)
(580 -3.80564e-12 0)
(580 -3.42283e-12 0)
(580 -3.43064e-12 0)
(580 -3.29559e-12 0)
(580 -3.23284e-12 0)
(580 -3.17839e-12 0)
(580 -3.16928e-12 0)
(580 -3.09036e-12 0)
(580 -2.8077e-12 0)
(580 -2.70213e-12 0)
(580 -2.788e-12 0)
(580 -2.95164e-12 0)
(580 -3.15589e-12 0)
(580 -3.26668e-12 0)
(580 -3.32444e-12 0)
(580 -3.43538e-12 0)
(580 -3.56531e-12 0)
(580 -3.85927e-12 0)
(580 -4.01391e-12 0)
(580 -4.05486e-12 0)
(580 -4.21914e-12 0)
(580 -3.97481e-12 0)
(580 -3.93869e-12 0)
(580 -3.82428e-12 0)
(580 -3.91988e-12 0)
(580 -4.08693e-12 0)
(580 -4.07189e-12 0)
(580 -4.08465e-12 0)
(580 -3.52692e-12 0)
(580 -3.23365e-12 0)
(580 -2.92874e-12 0)
(580 -2.88447e-12 0)
(580 -2.78308e-12 0)
(580 -2.65841e-12 0)
(580 -2.79917e-12 0)
(580 -2.66955e-12 0)
(580 -2.7331e-12 0)
(580 -2.71591e-12 0)
(580 -2.72699e-12 0)
(580 -2.77328e-12 0)
(580 -2.55499e-12 0)
(580 -2.51268e-12 0)
(580 -2.39467e-12 0)
(580 -2.48007e-12 0)
(580 -2.38316e-12 0)
(580 -2.26563e-12 0)
(580 -2.23537e-12 0)
(580 -2.15509e-12 0)
(580 -2.13473e-12 0)
(580 -2.13078e-12 0)
(580 -2.03923e-12 0)
(580 -1.96363e-12 0)
(580 -1.91987e-12 0)
(580 -1.97643e-12 0)
(580 -1.95139e-12 0)
(580 -1.95546e-12 0)
(580 -1.97263e-12 0)
(580 -1.80371e-12 0)
(580 -1.87898e-12 0)
(580 -1.73996e-12 0)
(580 -1.95594e-12 0)
(580 -2.16022e-12 0)
(580 -2.63548e-12 0)
(580 -2.69981e-12 0)
(580 -2.72406e-12 0)
(580 -2.73751e-12 0)
(580 -3.15827e-12 0)
(580 -3.68301e-12 0)
(580 -3.67313e-12 0)
(580 -3.65486e-12 0)
(580 -3.58534e-12 0)
(580 -4.02778e-12 0)
(580 -4.04899e-12 0)
(580 -4.03783e-12 0)
(580 -4.08914e-12 0)
(580 -3.99141e-12 0)
(580 -3.90441e-12 0)
(580 -3.81628e-12 0)
(580 -3.68529e-12 0)
(580 -3.45668e-12 0)
(580 -3.05183e-12 0)
(580 -2.60874e-12 0)
(580 -2.36352e-12 0)
(580 -2.43353e-12 0)
(580 -2.73701e-12 0)
(580 -2.81606e-12 0)
(580 -2.78904e-12 0)
(580 -2.4775e-12 0)
(580 -2.69377e-12 0)
(580 -2.60099e-12 0)
(580 -2.72972e-12 0)
(580 -2.62166e-12 0)
(580 -2.61691e-12 0)
(580 -2.53246e-12 0)
(580 -2.36106e-12 0)
(580 -2.39027e-12 0)
(580 -2.59452e-12 0)
(580 -2.55042e-12 0)
(580 -2.22407e-12 0)
(580 -2.22132e-12 0)
(580 -2.40726e-12 0)
(580 -2.35597e-12 0)
(580 -2.41266e-12 0)
(580 -2.38436e-12 0)
(580 -2.32166e-12 0)
(580 -2.36008e-12 0)
(580 -2.26513e-12 0)
(580 -2.26703e-12 0)
(580 -2.30962e-12 0)
(580 -2.18907e-12 0)
(580 -2.09829e-12 0)
(580 -2.14869e-12 0)
(580 -2.11722e-12 0)
(580 -2.21618e-12 0)
(580 -2.36856e-12 0)
(580 -2.34297e-12 0)
(580 -1.82647e-12 0)
(580 -1.59468e-12 0)
(580 -1.49638e-12 0)
(580 -1.55698e-12 0)
(580 -1.56652e-12 0)
(580 -1.88365e-12 0)
(580 -1.94904e-12 0)
(580 -1.88774e-12 0)
(580 -1.91815e-12 0)
(580 -1.94653e-12 0)
(580 -2.15084e-12 0)
(580 -2.35759e-12 0)
(580 -2.44962e-12 0)
(580 -2.61413e-12 0)
(580 -2.76189e-12 0)
(580 -2.86457e-12 0)
(580 -2.8647e-12 0)
(580 -3.18038e-12 0)
(580 -3.54494e-12 0)
(580 -3.74582e-12 0)
(580 -3.81371e-12 0)
(580 -4.00922e-12 0)
(580 -4.29126e-12 0)
(580 -4.37902e-12 0)
(580 -4.18693e-12 0)
(580 -4.6093e-12 0)
(580 -4.63547e-12 0)
(580 -4.69728e-12 0)
(580 -4.49163e-12 0)
(580 -4.21737e-12 0)
(580 -3.86273e-12 0)
(580 -3.72515e-12 0)
(580 -3.38128e-12 0)
(580 -2.96037e-12 0)
(580 -2.60632e-12 0)
(580 -2.1863e-12 0)
(580 -1.87781e-12 0)
(580 -1.66405e-12 0)
(580 -1.6456e-12 0)
(580 -1.61453e-12 0)
(580 -1.71459e-12 0)
(580 -2.21243e-12 0)
(580 -2.57809e-12 0)
(580 -2.45814e-12 0)
(580 -2.32516e-12 0)
(580 -2.32414e-12 0)
(580 -2.33645e-12 0)
(580 -2.30535e-12 0)
(580 -2.26333e-12 0)
(580 -2.19331e-12 0)
(580 -2.01967e-12 0)
(580 -1.80952e-12 0)
(580 -1.6694e-12 0)
(580 -1.61543e-12 0)
(580 -1.56667e-12 0)
(580 -1.49703e-12 0)
(580 -1.52002e-12 0)
(580 -1.76314e-12 0)
(580 -1.74321e-12 0)
(580 -1.80811e-12 0)
(580 -1.85712e-12 0)
(580 -1.80943e-12 0)
(580 -1.6903e-12 0)
(580 -1.62228e-12 0)
(580 -1.64951e-12 0)
(580 -1.64269e-12 0)
(580 -1.8008e-12 0)
(580 -1.89332e-12 0)
(580 -1.78387e-12 0)
(580 -1.81614e-12 0)
(580 -1.94863e-12 0)
(580 -2.07714e-12 0)
(580 -1.97225e-12 0)
(580 -1.96294e-12 0)
(580 -2.09154e-12 0)
(580 -2.17357e-12 0)
(580 -2.53369e-12 0)
(580 -2.5975e-12 0)
(580 -2.75499e-12 0)
(580 -2.88802e-12 0)
(580 -2.99228e-12 0)
(580 -3.07726e-12 0)
(580 -3.09461e-12 0)
(580 -2.97246e-12 0)
(580 -2.68694e-12 0)
(580 -2.45163e-12 0)
(580 -2.38369e-12 0)
(580 -2.33549e-12 0)
(580 -2.29559e-12 0)
(580 -2.45607e-12 0)
(580 -2.57736e-12 0)
(580 -2.83279e-12 0)
(580 -2.80536e-12 0)
(580 -3.02607e-12 0)
(580 -3.1804e-12 0)
(580 -2.50533e-12 0)
(580 -2.4144e-12 0)
(580 -1.95343e-12 0)
(580 -1.76254e-12 0)
(580 -1.75173e-12 0)
(580 -1.65345e-12 0)
(580 -1.59766e-12 0)
(580 -1.61202e-12 0)
(580 -1.83903e-12 0)
(580 -1.98911e-12 0)
(580 -2.18765e-12 0)
(580 -2.57299e-12 0)
(580 -2.76788e-12 0)
(580 -2.18736e-12 0)
(580 -2.06215e-12 0)
(580 -2.13484e-12 0)
(580 -2.13312e-12 0)
(580 -2.03059e-12 0)
(580 -2.00796e-12 0)
(580 -1.90685e-12 0)
(580 -1.85605e-12 0)
(580 -1.5931e-12 0)
(580 -1.58793e-12 0)
(580 -1.68408e-12 0)
(580 -1.70785e-12 0)
(580 -1.48914e-12 0)
(580 -1.3106e-12 0)
(580 -1.41361e-12 0)
(580 -1.20934e-12 0)
(580 -9.83404e-13 0)
(580 -1.06734e-12 0)
(580 -1.14974e-12 0)
(580 -1.26406e-12 0)
(580 -1.28114e-12 0)
(580 -1.33137e-12 0)
(580 -1.37276e-12 0)
(580 -1.46544e-12 0)
(580 -1.52091e-12 0)
(580 -1.5313e-12 0)
(580 -1.50434e-12 0)
(580 -1.48552e-12 0)
(580 -1.57258e-12 0)
(580 -1.80322e-12 0)
(580 -1.92901e-12 0)
(580 -2.11812e-12 0)
(580 -2.33081e-12 0)
(580 -2.43191e-12 0)
(580 -2.60175e-12 0)
(580 -2.71587e-12 0)
(580 -2.77296e-12 0)
(580 -2.57997e-12 0)
(580 -2.40592e-12 0)
(580 -2.4509e-12 0)
(580 -2.56728e-12 0)
(580 -2.35646e-12 0)
(580 -1.93911e-12 0)
(580 -1.77613e-12 0)
(580 -1.59986e-12 0)
(580 -1.44125e-12 0)
(580 -1.42439e-12 0)
(580 -1.41834e-12 0)
(580 -1.51263e-12 0)
(580 -1.60652e-12 0)
(580 -1.89369e-12 0)
(580 -1.90296e-12 0)
(580 -2.02887e-12 0)
(580 -2.14249e-12 0)
(580 -2.07779e-12 0)
(580 -2.03222e-12 0)
(580 -2.10095e-12 0)
(580 -5.27702e-13 0)
(580 -1.41934e-13 0)
(580 -7.50186e-14 0)
(580 1.42882e-13 0)
(580 2.17684e-13 0)
(580 2.75545e-13 0)
(580 2.43878e-13 0)
(580 1.22998e-13 0)
(580 -9.16222e-14 0)
(580 -6.37299e-14 0)
(580 -3.4852e-13 0)
(580 -5.04914e-13 0)
(580 -6.01136e-13 0)
(580 -6.70191e-13 0)
(580 -7.21924e-13 0)
(580 -8.83951e-13 0)
(580 -8.56462e-13 0)
(580 -8.52494e-13 0)
(580 -9.96074e-13 0)
(580 -1.2945e-12 0)
(580 -1.42324e-12 0)
(580 -1.48787e-12 0)
(580 -1.48373e-12 0)
(580 -1.59341e-12 0)
(580 -1.55269e-12 0)
(580 -1.75376e-12 0)
(580 -2.10831e-12 0)
(580 -2.53226e-12 0)
(580 -3.07881e-12 0)
(580 -3.22038e-12 0)
(580 -3.3953e-12 0)
(580 -3.3702e-12 0)
(580 -3.05173e-12 0)
(580 -2.95699e-12 0)
(580 -2.99088e-12 0)
(580 -2.94202e-12 0)
(580 -2.96801e-12 0)
(580 -2.98772e-12 0)
(580 -3.0074e-12 0)
(580 -3.04091e-12 0)
(580 -3.02506e-12 0)
(580 -2.98041e-12 0)
(580 -2.71864e-12 0)
(580 -2.55433e-12 0)
(580 -2.36194e-12 0)
(580 -2.45601e-12 0)
(580 -2.75847e-12 0)
(580 -3.11485e-12 0)
(580 -3.14989e-12 0)
(580 -2.93256e-12 0)
(580 -2.65109e-12 0)
(580 -2.67797e-12 0)
(580 -2.41817e-12 0)
(580 -1.91192e-12 0)
(580 -1.51082e-12 0)
(580 -1.64407e-12 0)
(580 -1.95333e-12 0)
(580 -2.4177e-12 0)
(580 -2.70088e-12 0)
(580 -3.10872e-12 0)
(580 -3.27573e-12 0)
(580 -3.22908e-12 0)
(580 -3.28177e-12 0)
(580 -3.04069e-12 0)
(580 -3.02877e-12 0)
(580 -3.03948e-12 0)
(580 -2.71232e-12 0)
(580 -2.73312e-12 0)
(580 -2.29257e-12 0)
(580 -2.22951e-12 0)
(580 7.76241e-13 0)
(580 6.55306e-13 0)
(580 5.59379e-13 0)
(580 4.33716e-13 0)
(580 3.29913e-13 0)
(580 2.84518e-13 0)
(580 8.88608e-14 0)
(580 8.73601e-14 0)
(580 -1.12765e-13 0)
(580 -3.59105e-13 0)
(580 -6.06975e-13 0)
(580 -8.53423e-13 0)
(580 -1.04318e-12 0)
(580 -1.30323e-12 0)
(580 -1.30269e-12 0)
(580 -1.33352e-12 0)
(580 -1.30335e-12 0)
(580 -1.13175e-12 0)
(580 -9.56214e-13 0)
(580 -8.61587e-13 0)
(580 -9.70209e-13 0)
(580 -1.14785e-12 0)
(580 -1.37891e-12 0)
(580 -1.54293e-12 0)
(580 -1.64553e-12 0)
(580 -1.85389e-12 0)
(580 -2.06107e-12 0)
(580 -2.19531e-12 0)
(580 -2.29698e-12 0)
(580 -2.30263e-12 0)
(580 -2.22964e-12 0)
(580 -2.11125e-12 0)
(580 -2.11595e-12 0)
(580 -2.13709e-12 0)
(580 -2.04129e-12 0)
(580 -2.01868e-12 0)
(580 -1.84838e-12 0)
(580 -1.79501e-12 0)
(580 -1.69448e-12 0)
(580 -1.55962e-12 0)
(580 -1.24561e-12 0)
(580 -1.09598e-12 0)
(580 -9.05791e-13 0)
(580 -8.18166e-13 0)
(580 -9.74674e-13 0)
(580 -9.05054e-13 0)
(580 -6.1847e-13 0)
(580 -4.89355e-13 0)
(580 -2.90236e-13 0)
(580 -3.96493e-13 0)
(580 -6.23467e-13 0)
(580 -5.06246e-13 0)
(580 -4.56078e-13 0)
(580 -6.91976e-13 0)
(580 -9.26257e-13 0)
(580 -1.26997e-12 0)
(580 -1.72012e-12 0)
(580 -1.87884e-12 0)
(580 -2.15982e-12 0)
(580 -2.30772e-12 0)
(580 -2.47989e-12 0)
(580 -2.69658e-12 0)
(580 -2.63582e-12 0)
(580 -2.39052e-12 0)
(580 -2.1043e-12 0)
(580 -1.82248e-12 0)
(580 -1.71118e-12 0)
(580 -1.34797e-12 0)
(580 -1.25855e-12 0)
(580 -9.09685e-13 0)
(580 8.14997e-13 0)
(580 2.9055e-13 0)
(580 -7.86468e-14 0)
(580 -4.94064e-13 0)
(580 -4.62334e-13 0)
(580 -5.61346e-13 0)
(580 -5.79355e-13 0)
(580 -6.26973e-13 0)
(580 -7.32569e-13 0)
(580 -8.74019e-13 0)
(580 -9.46424e-13 0)
(580 -1.01067e-12 0)
(580 -1.18724e-12 0)
(580 -1.05997e-12 0)
(580 -1.29469e-12 0)
(580 -1.56639e-12 0)
(580 -1.64345e-12 0)
(580 -1.69086e-12 0)
(580 -1.60541e-12 0)
(580 -1.60784e-12 0)
(580 -1.55013e-12 0)
(580 -1.52817e-12 0)
(580 -1.47619e-12 0)
(580 -1.36559e-12 0)
(580 -1.462e-12 0)
(580 -1.32802e-12 0)
(580 -1.10988e-12 0)
(580 -9.68855e-13 0)
(580 -7.80173e-13 0)
(580 -6.13486e-13 0)
(580 -4.21902e-13 0)
(580 -2.13115e-13 0)
(580 -1.20616e-13 0)
(580 -5.05732e-14 0)
(580 1.82593e-13 0)
(580 3.17194e-13 0)
(580 5.51157e-13 0)
(580 6.99696e-13 0)
(580 8.21081e-13 0)
(580 8.89228e-13 0)
(580 1.06813e-12 0)
(580 1.25971e-12 0)
(580 1.15684e-12 0)
(580 1.0212e-12 0)