/*--------------------------------*- C++ -*----------------------------------*\
| =========                 |                                                 |
| \\      /  F ield         | OpenFOAM: The Open Source CFD Toolbox           |
|  \\    /   O peration     | Version:  2306                                  |
|   \\  /    A nd           | Website:  www.openfoam.com                      |
|    \\/     M anipulation  |                                                 |
\*---------------------------------------------------------------------------*/
FoamFile
{
    version     2.0;
    format      ascii;
    arch        "LSB;label=32;scalar=64";
    class       volScalarField;
    location    "6e-05";
    object      p;
}
// * * * * * * * * * * * * * * * * * * * * * * * * * * * * * * * * * * * * * //

dimensions      [1 -1 -2 0 0 0 0];

internalField   nonuniform List<scalar> 
9032
(
109789
109701
109542
109411
109394
109446
109550
109630
109678
109655
109601
109605
109638
109693
109721
109733
109725
109704
109685
109670
109651
109623
109588
109567
109598
109664
109751
109842
109986
110245
110705
111421
112208
112786
113118
113315
113405
113439
113452
113462
113479
113497
113494
113464
113407
113322
113215
113103
113006
112918
112832
112740
112643
112539
112429
112311
112185
112045
111886
111704
111498
111280
111072
110891
110747
110622
110523
110476
109694
109593
109511
109461
109472
109528
109588
109619
109611
109546
109497
109501
109541
109615
109645
109638
109607
109574
109569
109585
109612
109631
109643
109645
109659
109699
109761
109864
110044
110367
110949
111783
112576
113067
113295
113400
113437
113451
113459
113462
113465
113460
113440
113399
113335
113255
113163
113065
112963
112863
112766
112666
112564
112455
112340
112217
112086
111944
111790
111622
111442
111253
111064
110894
110756
110638
110511
110407
109520
109528
109536
109556
109570
109605
109649
109664
109639
109569
109504
109485
109491
109524
109552
109536
109497
109452
109444
109459
109504
109576
109633
109670
109699
109732
109787
109895
110098
110494
111198
112085
112809
113170
113332
113396
113417
113425
113434
113441
113436
113417
113381
113330
113268
113198
113121
113034
112936
112830
112721
112613
112505
112393
112275
112151
112019
111879
111732
111582
111428
111264
111104
110941
110778
110624
110474
110360
109593
109569
109536
109531
109548
109594
109650
109690
109677
109648
109603
109564
109542
109532
109526
109497
109465
109436
109431
109446
109481
109537
109587
109627
109665
109704
109761
109886
110150
110645
111468
112365
112987
113249
113362
113404
113421
113429
113435
113438
113427
113394
113343
113286
113227
113160
113083
112993
112889
112774
112653
112533
112417
112301
112181
112054
111921
111785
111652
111524
111399
111272
111126
110964
110792
110613
110429
110287
109588
109563
109544
109538
109555
109579
109638
109712
109719
109698
109654
109593
109552
109522
109510
109487
109461
109429
109407
109411
109432
109478
109537
109590
109628
109667
109733
109877
110210
110830
111747
112616
113108
113300
113385
113415
113424
113430
113430
113425
113405
113367
113316
113257
113192
113120
113039
112945
112838
112723
112603
112481
112359
112236
112111
111979
111844
111713
111586
111462
111343
111225
111096
110949
110778
110588
110392
110224
109819
109691
109575
109544
109532
109549
109616
109672
109678
109665
109641
109613
109592
109585
109572
109545
109511
109465
109431
109434
109452
109490
109544
109588
109620
109659
109735
109911
110322
111057
112021
112826
113197
113337
113401
113426
113438
113442
113439
113427
113404
113366
113311
113242
113162
113078
112994
112903
112801
112688
112566
112436
112301
112166
112033
111900
111771
111649
111524
111398
111268
111137
111005
110866
110712
110539
110359
110202
109781
109737
109629
109510
109421
109425
109488
109530
109538
109528
109515
109513
109536
109581
109602
109604
109594
109564
109521
109507
109518
109543
109574
109592
109608
109641
109732
109960
110463
111306
112272
112964
113241
113356
113410
113435
113447
113449
113441
113426
113399
113357
113299
113226
113141
113054
112969
112877
112773
112657
112529
112392
112249
112108
111972
111839
111714
111591
111464
111328
111183
111036
110895
110759
110630
110500
110357
110214
109557
109644
109589
109453
109384
109445
109492
109510
109496
109474
109469
109471
109501
109546
109581
109601
109609
109602
109589
109582
109593
109621
109633
109629
109631
109661
109770
110064
110669
111606
112528
113070
113276
113375
113432
113464
113476
113473
113456
113440
113415
113375
113320
113249
113158
113054
112955
112859
112752
112633
112499
112350
112194
112044
111904
111773
111648
111523
111392
111253
111105
110953
110808
110671
110545
110432
110320
110203
109489
109636
109548
109467
109499
109569
109566
109544
109529
109512
109504
109508
109537
109571
109597
109609
109613
109613
109620
109630
109635
109639
109633
109617
109614
109648
109789
110162
110890
111898
112753
113179
113328
113412
113470
113500
113511
113502
113473
113446
113416
113373
113317
113249
113165
113063
112955
112848
112737
112614
112475
112318
112151
111994
111855
111729
111612
111494
111370
111233
111075
110898
110730
110591
110471
110367
110269
110164
109819
109746
109564
109596
109654
109610
109532
109498
109518
109519
109508
109512
109527
109549
109565
109584
109616
109645
109673
109691
109687
109666
109641
109618
109614
109658
109836
110279
111117
112144
112936
113251
113366
113444
113502
113526
113532
113515
113475
113438
113404
113359
113302
113235
113157
113062
112954
112840
112722
112593
112447
112283
112107
111942
111802
111679
111566
111456
111344
111220
111079
110916
110743
110584
110451
110335
110228
110130
110526
109850
109634
109737
109728
109575
109469
109472
109521
109543
109536
109526
109512
109512
109520
109551
109602
109646
109672
109685
109668
109641
109607
109583
109581
109645
109883
110437
111379
112412
113104
113323
113409
113478
113530
113550
113554
113536
113494
113447
113409
113364
113307
113237
113146
113042
112931
112815
112693
112559
112411
112250
112085
111923
111777
111653
111540
111432
111324
111210
111082
110940
110787
110624
110463
110321
110189
110085
109231
109354
109651
109793
109659
109437
109417
109475
109527
109546
109544
109546
109521
109510
109517
109545
109599
109651
109681
109695
109673
109625
109581
109563
109565
109665
109971
110642
111673
112688
113260
113414
113470
113519
113552
113560
113554
113529
113482
113428
113376
113324
113261
113186
113097
113001
112894
112779
112657
112526
112385
112240
112092
111940
111787
111648
111528
111413
111300
111189
111074
110951
110816
110666
110496
110314
110146
110017
98309.2
108732
109714
109683
109538
109431
109441
109462
109469
109522
109558
109573
109551
109544
109550
109566
109598
109626
109649
109664
109656
109619
109572
109554
109578
109726
110122
110914
112007
112959
113385
113488
113521
113553
113577
113582
113568
113534
113477
113399
113331
113274
113211
113136
113057
112963
112855
112737
112615
112487
112353
112214
112074
111933
111782
111630
111496
111378
111267
111161
111055
110941
110812
110667
110505
110316
110118
109955
57386.9
99249
109127
109722
109739
109621
109504
109409
109388
109512
109587
109613
109598
109604
109622
109631
109643
109642
109630
109617
109591
109554
109537
109551
109621
109827
110323
111233
112357
113209
113491
113552
113562
113574
113587
113587
113567
113525
113455
113372
113303
113240
113174
113096
113004
112900
112781
112651
112525
112409
112297
112180
112051
111915
111771
111617
111468
111338
111222
111117
111015
110902
110772
110626
110468
110290
110090
109908
33460.7
58084.6
98160.7
109851
110174
109595
109426
109301
109362
109558
109615
109631
109622
109658
109701
109714
109707
109680
109638
109586
109544
109515
109518
109559
109674
109953
110568
111590
112703
113410
113576
113598
113589
113585
113588
113582
113560
113518
113449
113365
113297
113231
113163
113080
112975
112859
112730
112592
112456
112336
112228
112125
112015
111890
111756
111613
111455
111301
111164
111045
110938
110836
110717
110572
110413
110236
110046
109870
32005.7
33637.1
56660.1
97668.9
107873
109115
109265
109315
109502
109650
109613
109566
109586
109667
109723
109729
109721
109704
109651
109562
109503
109484
109504
109570
109723
110090
110834
111961
113019
113526
113618
113624
113607
113589
113583
113574
113552
113510
113445
113366
113296
113224
113149
113061
112951
112829
112697
112557
112413
112280
112168
112064
111968
111864
111741
111606
111455
111285
111117
110964
110829
110707
110595
110471
110327
110171
109993
109828
32000
32007.1
33291.1
56156.2
96205.1
109934
110100
109612
109575
109659
109541
109481
109561
109629
109667
109682
109694
109700
109654
109559
109484
109464
109496
109582
109773
110228
111107
112301
113249
113574
113632
113631
113612
113593
113580
113571
113553
113510
113444
113368
113295
113215
113130
113034
112922
112799
112670
112534
112392
112250
112129
112023
111926
111833
111724
111597
111451
111279
111087
110900
110732
110584
110447
110319
110197
110064
109913
109782
32000
32000
32004.7
33344.9
54044.2
94510.4
107619
108968
109349
109559
109428
109481
109609
109618
109616
109631
109670
109687
109649
109565
109485
109444
109483
109582
109816
110374
111387
112595
113377
113587
113625
113622
113609
113595
113582
113570
113548
113504
113437
113356
113275
113189
113095
112993
112881
112763
112642
112517
112384
112241
112109
112000
111898
111804
111702
111576
111432
111257
111054
110848
110662
110492
110339
110193
110062
109946
109822
109723
32000
32000
32000
32005.2
32950.3
53062.2
93838.4
107570
109658
109667
109367
109578
109723
109650
109607
109627
109674
109681
109623
109542
109467
109428
109468
109581
109872
110551
111680
112829
113449
113586
113612
113612
113603
113593
113584
113568
113538
113487
113418
113333
113237
113138
113036
112934
112831
112724
112613
112499
112376
112238
112097
111977
111867
111763
111659
111534
111389
111219
111022
110816
110622
110442
110273
110120
109974
109850
109735
109663
32000
32000
32000
32000
32002.9
32944.9
50072.5
90308.6
109861
109976
109017
109718
109956
109699
109634
109659
109660
109621
109541
109489
109458
109442
109487
109622
109984
110791
112001
113044
113498
113592
113619
113622
113609
113596
113587
113570
113534
113471
113393
113298
113190
113084
112985
112885
112788
112688
112580
112470
112354
112223
112083
111949
111828
111711
111593
111466
111323
111163
110990
110809
110622
110430
110238
110067
109919
109790
109665
109601
32000
32000
32000
32000
32000
32002.8
32553
48257.8
90892
105426
108435
110662
109943
109443
109569
109588
109563
109490
109444
109442
109462
109493
109549
109717
110170
111110
112354
113252
113557
113622
113651
113653
113624
113606
113595
113575
113536
113460
113370
113270
113153
113043
112949
112855
112761
112659
112546
112430
112313
112188
112049
111909
111780
111653
111524
111391
111250
111101
110944
110779
110611
110436
110249
110056
109883
109749
109617
109542
32000
32000
32000
32000
32000
32000
32001.2
32492.5
46119
85410.8
108173
111613
109633
108858
109578
109578
109455
109393
109409
109476
109530
109588
109671
109888
110451
111512
112701
113430
113623
113673
113701
113684
113639
113622
113607
113588
113549
113464
113360
113247
113124
113015
112925
112835
112744
112639
112520
112395
112266
112134
112006
111873
111734
111596
111459
111319
111178
111035
110890
110741
110588
110430
110260
110076
109882
109723
109584
109489
32000
32000
32000
32000
32000
32000
32000
32001.1
32317.5
43868.8
84218.6
106634
107637
109453
109885
109609
109390
109340
109403
109541
109624
109683
109776
110057
110753
111903
112966
113518
113648
113709
113752
113734
113671
113639
113616
113592
113552
113464
113353
113231
113107
112998
112913
112828
112738
112636
112515
112374
112230
112102
111971
111836
111694
111543
111392
111249
111107
110965
110831
110698
110555
110406
110250
110083
109894
109712
109556
109442
32000
32000
32000
32000
32000
32000
32000
32000
32000.5
32230
41980.8
78358.8
105051
111535
110644
109521
109345
109261
109348
109530
109670
109725
109830
110204
111049
112233
113112
113503
113627
113706
113771
113782
113719
113655
113617
113584
113547
113470
113359
113223
113092
112992
112911
112830
112743
112640
112518
112374
112233
112098
111957
111812
111662
111501
111334
111183
111041
110905
110777
110653
110522
110381
110235
110076
109894
109698
109524
109391
32000
32000
32000
32000
32000
32000
32000
32000
32000
32000.3
32161.1
39217.8
73879.3
106155
108999
109178
109336
109319
109367
109497
109644
109719
109884
110373
111349
112506
113180
113440
113592
113695
113774
113801
113758
113676
113619
113575
113537
113470
113366
113235
113106
113000
112906
112820
112734
112633
112500
112357
112225
112095
111951
111800
111639
111463
111284
111124
110989
110861
110737
110616
110491
110354
110210
110054
109875
109675
109490
109335
32000
32000
32000
32000
32000
32000
32000
32000
32000
32000
32000.2
32078.9
37615.4
69535.3
102264
109946
109580
109437
109539
109591
109627
109735
110003
110605
111648
112706
113215
113395
113497
113599
113709
113776
113774
113697
113626
113575
113523
113457
113378
113275
113163
113050
112937
112830
112732
112617
112467
112330
112204
112076
111932
111776
111608
111426
111235
111074
110942
110815
110687
110562
110438
110305
110167
110021
109854
109656
109459
109284
32000
32000
32000
32000
32000
32000
32000
32000
32000
32000
32000
32000.1
32054
35711.3
64144.8
100402
109433
109760
109731
109510
109570
109808
110179
110841
111862
112807
113260
113389
113471
113569
113671
113730
113735
113696
113603
113532
113486
113451
113395
113330
113233
113125
113003
112872
112740
112593
112413
112243
112106
111982
111866
111724
111563
111380
111177
111006
110881
110763
110645
110523
110392
110254
110116
109974
109823
109639
109436
109244
32000
32000
32000
32000
32000
32000
32000
32000
32000
32000
32000
32000
32000
32024.1
34639.2
58386.6
96117.6
108145
109388
108893
109485
109931
110308
110926
111946
112898
113268
113418
113508
113596
113671
113709
113709
113668
113577
113488
113436
113410
113397
113373
113281
113165
113042
112909
112761
112588
112388
112177
111989
111844
111725
111619
111481
111323
111124
110927
110791
110675
110572
110474
110354
110224
110091
109949
109796
109613
109407
109214
32000
32000
32000
32000
32000
32000
32000
32000
32000
32000
32000
32000
32000
32000
32014.6
33412.1
53588.2
93365.3
107502
108559
110062
110316
110277
110956
112186
113018
113318
113470
113572
113662
113702
113720
113716
113671
113589
113494
113429
113385
113363
113364
113303
113183
113059
112921
112768
112588
112388
112173
111952
111774
111650
111552
111431
111286
111100
110885
110713
110586
110474
110382
110285
110167
110044
109907
109751
109568
109362
109180
32000
32000
32000
32000
32000
32000
32000
32000
32000
32000
32000
32000
32000
32000
32000
32005.1
32945.5
48386.8
86421
106944
111632
110495
109719
111054
112496
113140
113392
113570
113699
113755
113765
113758
113743
113698
113635
113542
113460
113407
113361
113322
113221
113088
112938
112773
112626
112486
112343
112184
111992
111796
111671
111568
111444
111296
111115
110893
110685
110538
110420
110319
110213
110098
109978
109841
109682
109499
109303
109133
32000
32000
32000
32000
32000
32000
32000
32000
32000
32000
32000
32000
32000
32000
32000
32000
32002.8
32428.8
43745.4
79997.4
108229
108489
110003
111542
112652
113157
113518
113784
113851
113864
113859
113842
113798
113761
113706
113604
113498
113439
113389
113304
113170
113032
112862
112651
112454
112324
112222
112119
111994
111835
111700
111587
111456
111305
111127
110911
110687
110522
110405
110300
110185
110063
109931
109780
109603
109406
109216
109053
32000
32000
32000
32000
32000
32000
32000
32000
32000
32000
32000
32000
32000
32000
32000
32000
32000
32000.8
32214.1
39773.4
73919.9
102173
111884
112904
112861
113322
113807
114028
113996
113988
113990
113991
113936
113877
113801
113654
113504
113443
113389
113282
113160
113031
112865
112648
112413
112252
112147
112048
111940
111810
111682
111570
111444
111299
111129
110925
110702
110519
110390
110272
110152
110029
109896
109739
109541
109326
109139
108980
32000
32000
32000
32000
32000
32000
32000
32000
32000
32000
32000
32000
32000
32000
32000
32000
32000
32000
32000.3
32094.9
36886.3
64380.8
103250
111463
112505
113697
113937
113934
113967
114074
114134
114153
114120
114048
113921
113712
113513
113415
113324
113221
113127
113018
112880
112699
112478
112282
112155
112039
111915
111777
111640
111523
111400
111255
111088
110897
110692
110506
110369
110257
110149
110029
109885
109702
109472
109240
109059
108903
32000
32000
32000
32000
32000
32000
32000
32000
32000
32000
32000
32000
32000
32000
32000
32000
32000
32000
32000
32000.1
32038.2
34601.6
59177.3
97695.7
112669
114537
113855
113769
114041
114168
114173
114121
114091
114056
113956
113751
113520
113357
113230
113146
113074
112981
112864
112719
112537
112342
112194
112057
111909
111752
111590
111445
111304
111153
110996
110834
110667
110509
110382
110273
110157
110013
109839
109627
109389
109180
109013
108864
32000
32000
32000
32000
32000
32000
32000
32000
32000
32000
32000
32000
32000
32000
32000
32000
32000
32000
32000
32000
32000
32013.7
33447.4
52993.8
97532.8
111932
113330
114156
114387
114279
114096
113896
113840
113835
113786
113670
113490
113319
113188
113108
113039
112952
112842
112715
112562
112382
112217
112059
111889
111710
111526
111348
111188
111043
110904
110764
110619
110477
110351
110229
110096
109932
109744
109535
109324
109142
108982
108842
32000
32000
32000
32000
32000
32000
32000
32000
32000
32000
32000
32000
32000
32000
32000
32000
32000
32000
32000
32000
32000
32000
32005.3
32801.8
49604
91729.8
113416
115132
114871
114335
114178
113995
113876
113722
113604
113561
113460
113339
113196
113096
113017
112944
112846
112725
112580
112394
112189
112006
111826
111639
111452
111269
111102
110961
110829
110692
110544
110396
110264
110134
109990
109823
109644
109457
109270
109101
108958
108825
32000
32000
32000
32000
32000
32000
32000
32000
32000
32000
32000
32000
32000
32000
32000
32000
32000
32000
32000
32000
32000
32000
32000
32002.1
32485.9
45789.4
90335.6
111109
113912
114044
114376
114506
114144
113786
113630
113591
113531
113409
113241
113090
112985
112918
112863
112751
112601
112389
112129
111911
111729
111555
111386
111222
111058
110908
110774
110631
110474
110316
110172
110037
109895
109737
109565
109392
109215
109063
108933
108808
32000
32000
32000
32000
32000
32000
32000
32000
32000
32000
32000
32000
32000
32000
32000
32000
32000
32000
32000
32000
32000
32000
32000
32000
32001
32285.7
43639.3
83459.7
112508
114634
115082
114836
114264
113870
113706
113657
113595
113460
113260
113072
112945
112870
112850
112763
112602
112355
112054
111830
111650
111505
111365
111211
111053
110891
110732
110574
110411
110248
110095
109958
109816
109667
109508
109350
109179
109028
108900
108776
32000
32000
32000
32000
32000
32000
32000
32000
32000
32000
32000
32000
32000
32000
32000
32000
32000
32000
32000
32000
32000
32000
32000
32000
32000
32000.4
32199.9
40503.5
81809.5
107826
113444
114004
113427
113512
113545
113618
113575
113428
113214
113019
112893
112809
112772
112687
112514
112253
111970
111780
111628
111509
111381
111227
111059
110875
110689
110517
110353
110196
110039
109891
109752
109624
109483
109338
109176
109016
108873
108739
32000
32000
32000
32000
32000
32000
32000
32000
32000
32000
32000
32000
32000
32000
32000
32000
32000
32000
32000
32000
32000
32000
32000
32000
32000
32000
32000.3
32103.2
39088.1
72487
110448
114419
113804
113769
113683
113706
113621
113465
113237
113034
112890
112779
112682
112541
112338
112090
111887
111740
111622
111535
111421
111265
111079
110852
110629
110474
110336
110179
110013
109850
109703
109577
109452
109318
109170
109014
108854
108698
32000
32000
32000
32000
32000
32000
32000
32000
32000
32000
32000
32000
32000
32000
32000
32000
32000
32000
32000
32000
32000
32000
32000
32000
32000
32000
32000
32000.1
32071.3
36337.6
69689
104009
113919
114784
114186
113954
113815
113578
113346
113136
112965
112789
112613
112412
112176
111959
111808
111702
111631
111563
111431
111256
111042
110789
110603
110454
110318
110171
110006
109831
109666
109524
109397
109277
109141
108993
108835
108660
32000
32000
32000
32000
32000
32000
32000
32000
32000
32000
32000
32000
32000
32000
32000
32000
32000
32000
32000
32000
32000
32000
32000
32000
32000
32000
32000
32000
32000.1
32031.9
35123.4
61108.6
102155
114321
113707
113883
113840
113488
113306
113147
112980
112809
112592
112335
112089
111917
111803
111730
111674
111558
111394
111187
110930
110701
110543
110409
110298
110174
110017
109837
109646
109486
109343
109220
109097
108953
108799
108613
32000
32000
32000
32000
32000
32000
32000
32000
32000
32000
32000
32000
32000
32000
32000
32000
32000
32000
32000
32000
32000
32000
32000
32000
32000
32000
32000
32000
32000
32000
32017.1
33743.9
54675.3
98611.8
111352
113632
113692
113424
113191
113009
112916
112782
112553
112280
112078
111965
111887
111831
111722
111550
111339
111073
110800
110610
110475
110375
110304
110199
110043
109852
109638
109463
109313
109178
109053
108907
108756
108563
32000
32000
32000
32000
32000
32000
32000
32000
32000
32000
32000
32000
32000
32000
32000
32000
32000
32000
32000
32000
32000
32000
32000
32000
32000
32000
32000
32000
32000
32000
32000
32006.9
32888.9
50174.7
90469.6
112766
114066
113425
113005
112815
112802
112683
112483
112261
112107
112019
111944
111869
111708
111511
111273
110982
110729
110577
110462
110393
110336
110224
110058
109848
109635
109461
109308
109165
109028
108877
108723
108523
32000
32000
32000
32000
32000
32000
32000
32000
32000
32000
32000
32000
32000
32000
32000
32000
32000
32000
32000
32000
32000
32000
32000
32000
32000
32000
32000
32000
32000
32000
32000
32000
32002.7
32497.8
44361.1
84301
110666
112954
112769
112777
112832
112726
112577
112314
112133
112014
111912
111792
111605
111403
111180
110928
110734
110603
110500
110431
110329
110178
109996
109785
109599
109441
109292
109152
109010
108857
108698
108500
32000
32000
32000
32000
32000
32000
32000
32000
32000
32000
32000
32000
32000
32000
32000
32000
32000
32000
32000
32000
32000
32000
32000
32000
32000
32000
32000
32000
32000
32000
32000
32000
32000
32001
32221.9
40185.5
77425.2
105976
112592
113323
113303
113070
112686
112457
112257
112032
111837
111642
111460
111280
111092
110920
110787
110659
110534
110408
110256
110060
109864
109703
109546
109397
109254
109107
108958
108802
108645
108470
32000
32000
32000
32000
32000
32000
32000
32000
32000
32000
32000
32000
32000
32000
32000
32000
32000
32000
32000
32000
32000
32000
32000
32000
32000
32000
32000
32000
32000
32000
32000
32000
32000
32000
32000.3
32101.5
37339.7
65918.9
102919
113401
113427
113014
112627
112349
112177
111989
111744
111580
111399
111217
111065
110953
110843
110702
110534
110337
110119
109901
109733
109602
109481
109346
109194
109033
108860
108695
108552
108401
32000
32000
32000
32000
32000
32000
32000
32000
32000
32000
32000
32000
32000
32000
32000
32000
32000
32000
32000
32000
32000
32000
32000
32000
32000
32000
32000
32000
32000
32000
32000
32000
32000
32000
32000
32000.1
32042.7
34573.5
57209.5
99757.4
110854
111953
112085
112060
111927
111843
111683
111581
111421
111236
111100
111009
110903
110746
110553
110298
110001
109773
109625
109519
109425
109287
109126
108937
108736
108571
108436
108310
32000
32000
32000
32000
32000
32000
32000
32000
32000
32000
32000
32000
32000
32000
32000
32000
32000
32000
32000
32000
32000
32000
32000
32000
32000
32000
32000
32000
32000
32000
32000
32000
32000
32000
32000
32000
32000
32012.8
33200
50990.7
88390.9
110846
113270
112638
112099
111773
111720
111567
111347
111188
111067
110973
110881
110722
110537
110290
109963
109720
109566
109464
109394
109265
109101
108889
108653
108470
108324
108194
32000
32000
32000
32000
32000
32000
32000
32000
32000
32000
32000
32000
32000
32000
32000
32000
32000
32000
32000
32000
32000
32000
32000
32000
32000
32000
32000
32000
32000
32000
32000
32000
32000
32000
32000
32000
32000
32000
32004.2
32534.5
42902.5
78372.5
107159
111835
112095
112115
111971
111713
111298
111022
110877
110750
110671
110588
110438
110225
109948
109720
109558
109434
109344
109219
109061
108858
108622
108427
108269
108112
32000
32000
32000
32000
32000
32000
32000
32000
32000
32000
32000
32000
32000
32000
32000
32000
32000
32000
32000
32000
32000
32000
32000
32000
32000
32000
32000
32000
32000
32000
32000
32000
32000
32000
32000
32000
32000
32000
32000
32001
32164.4
37670.5
68822
100210
111426
112538
112434
111741
111208
110965
110773
110609
110472
110356
110232
110077
109879
109691
109530
109394
109267
109119
108962
108785
108596
108417
108258
108083
32000
32000
32000
32000
32000
32000
32000
32000
32000
32000
32000
32000
32000
32000
32000
32000
32000
32000
32000
32000
32000
32000
32000
32000
32000
32000
32000
32000
32000
32000
32000
32000
32000
32000
32000
32000
32000
32000
32000
32000
32000.2
32051
35062.2
55694.7
94737.8
110165
111237
111150
111314
111229
111065
110808
110486
110257
110078
109945
109826
109669
109507
109345
109169
108988
108822
108678
108542
108406
108252
108079
32000
32000
32000
32000
32000
32000
32000
32000
32000
32000
32000
32000
32000
32000
32000
32000
32000
32000
32000
32000
32000
32000
32000
32000
32000
32000
32000
32000
32000
32000
32000
32000
32000
32000
32000
32000
32000
32000
32000
32000
32000
32000
32017.4
33008.6
46806
84260.3
105946
111906
111895
111471
111167
110853
110573
110343
110124
109932
109795
109660
109501
109319
109092
108881
108724
108584
108470
108373
108228
108061
32000
32000
32000
32000
32000
32000
32000
32000
32000
32000
32000
32000
32000
32000
32000
32000
32000
32000
32000
32000
32000
32000
32000
32000
32000
32000
32000
32000
32000
32000
32000
32000
32000
32000
32000
32000
32000
32000
32000
32000
32000
32000
32000
32002.8
32315.1
40477.8
69314.8
103851
109487
110212
110297
110537
110469
110318
110114
109936
109799
109662
109498
109293
109040
108831
108676
108536
108433
108351
108210
108040
32000
32000
32000
32000
32000
32000
32000
32000
32000
32000
32000
32000
32000
32000
32000
32000
32000
32000
32000
32000
32000
32000
32000
32000
32000
32000
32000
32000
32000
32000
32000
32000
32000
32000
32000
32000
32000
32000
32000
32000
32000
32000
32000
32000
32000.5
32102.3
35296.6
57876.4
92271.2
109521
111738
111299
110464
110176
109988
109849
109733
109606
109446
109237
108993
108810
108662
108531
108433
108334
108182
108009
32000
32000
32000
32000
32000
32000
32000
32000
32000
32000
32000
32000
32000
32000
32000
32000
32000
32000
32000
32000
32000
32000
32000
32000
32000
32000
32000
32000
32000
32000
32000
32000
32000
32000
32000
32000
32000
32000
32000
32000
32000
32000
32000
32000
32000
32000.1
32020.3
33155.7
46146.9
80202.9
106330
109501
109571
109809
109902
109806
109674
109522
109367
109162
108925
108763
108626
108513
108427
108295
108136
107953
32000
32000
32000
32000
32000
32000
32000
32000
32000
32000
32000
32000
32000
32000
32000
32000
32000
32000
32000
32000
32000
32000
32000
32000
32000
32000
32000
32000
32000
32000
32000
32000
32000
32000
32000
32000
32000
32000
32000
32000
32000
32000
32000
32000
32000
32000
32000
32003.5
32290.4
38498.4
66931.5
97092.5
109864
111013
110627
110028
109662
109508
109290
109117
108903
108737
108599
108493
108402
108242
108066
107871
32000
32000
32000
32000
32000
32000
32000
32000
32000
32000
32000
32000
32000
32000
32000
32000
32000
32000
32000
32000
32000
32000
32000
32000
32000
32000
32000
32000
32000
32000
32000
32000
32000
32000
32000
32000
32000
32000
32000
32000
32000
32000
32000
32000
32000
32000
32000
32000
32000.4
32065.8
34630.8
51788.5
87376.4
106922
109378
109409
109439
109475
109366
109157
108866
108682
108527
108400
108299
108148
107975
107784
32000
32000
32000
32000
32000
32000
32000
32000
32000
32000
32000
32000
32000
32000
32000
32000
32000
32000
32000
32000
32000
32000
32000
32000
32000
32000
32000
32000
32000
32000
32000
32000
32000
32000
32000
32000
32000
32000
32000
32000
32000
32000
32000
32000
32000
32000
32000
32000
32000
32000.1
32013.2
32641.2
41889.3
73500.6
99193.8
108970
110094
109980
109551
109026
108793
108601
108426
108300
108205
108095
107932
107739
32000
32000
32000
32000
32000
32000
32000
32000
32000
32000
32000
32000
32000
32000
32000
32000
32000
32000
32000
32000
32000
32000
32000
32000
32000
32000
32000
32000
32000
32000
32000
32000
32000
32000
32000
32000
32000
32000
32000
32000
32000
32000
32000
32000
32000
32000
32000
32000
32000
32000
32000
32001.4
32143
36149.5
55371.6
89787.2
106556
109244
109110
109180
108975
108738
108473
108303
108168
108053
107888
107683
32000
32000
32000
32000
32000
32000
32000
32000
32000
32000
32000
32000
32000
32000
32000
32000
32000
32000
32000
32000
32000
32000
32000
32000
32000
32000
32000
32000
32000
32000
32000
32000
32000
32000
32000
32000
32000
32000
32000
32000
32000
32000
32000
32000
32000
32000
32000
32000
32000
32000
32000
32000
32000.2
32027.3
32961.6
43491.3
75378.2
98955.6
108912
109853
109608
108795
108431
108206
108052
107925
107767
107583
32000
32000
32000
32000
32000
32000
32000
32000
32000
32000
32000
32000
32000
32000
32000
32000
32000
32000
32000
32000
32000
32000
32000
32000
32000
32000
32000
32000
32000
32000
32000
32000
32000
32000
32000
32000
32000
32000
32000
32000
32000
32000
32000
32000
32000
32000
32000
32000
32000
32000
32000
32000
32000
32000
32002.6
32188
36843.6
55893.1
91261.3
105071
108021
107979
108137
107981
107890
107805
107687
107530
32000
32000
32000
32000
32000
32000
32000
32000
32000
32000
32000
32000
32000
32000
32000
32000
32000
32000
32000
32000
32000
32000
32000
32000
32000
32000
32000
32000
32000
32000
32000
32000
32000
32000
32000
32000
32000
32000
32000
32000
32000
32000
32000
32000
32000
32000
32000
32000
32000
32000
32000
32000
32000
32000
32000
32000.2
32036.6
33023.5
44453.6
72541.3
99684.9
108620
108576
108087
107917
107940
107779
107595
32000
32000
32000
32000
32000
32000
32000
32000
32000
32000
32000
32000
32000
32000
32000
32000
32000
32000
32000
32000
32000
32000
32000
32000
32000
32000
32000
32000
32000
32000
32000
32000