/*--------------------------------*- C++ -*----------------------------------*\
| =========                 |                                                 |
| \\      /  F ield         | OpenFOAM: The Open Source CFD Toolbox           |
|  \\    /   O peration     | Version:  2306                                  |
|   \\  /    A nd           | Website:  www.openfoam.com                      |
|    \\/     M anipulation  |                                                 |
\*---------------------------------------------------------------------------*/
FoamFile
{
    version     2.0;
    format      ascii;
    arch        "LSB;label=32;scalar=64";
    class       volScalarField;
    location    "6e-05";
    object      rho;
}
// * * * * * * * * * * * * * * * * * * * * * * * * * * * * * * * * * * * * * //

dimensions      [1 -3 0 0 0 0 0];

internalField   nonuniform List<scalar> 
9032
(
1.42137
1.42045
1.41865
1.41705
1.41666
1.41679
1.41739
1.41791
1.4182
1.41788
1.41717
1.41701
1.41712
1.41752
1.41769
1.41769
1.41749
1.41715
1.41682
1.41654
1.41624
1.41588
1.41547
1.41523
1.41544
1.41597
1.41672
1.4175
1.41876
1.4211
1.42529
1.43185
1.43908
1.44442
1.44747
1.44926
1.45001
1.45021
1.45021
1.4502
1.45028
1.4504
1.45036
1.45004
1.44949
1.44868
1.44769
1.44664
1.44573
1.44492
1.44412
1.44325
1.44231
1.44133
1.4403
1.43921
1.43806
1.43679
1.43534
1.43367
1.43178
1.42979
1.42789
1.42623
1.4249
1.42375
1.42285
1.42238
1.41861
1.41762
1.41661
1.41591
1.41587
1.41617
1.41655
1.41669
1.41655
1.41581
1.4152
1.41511
1.41536
1.41601
1.41624
1.41612
1.41572
1.41528
1.41513
1.41517
1.41534
1.41545
1.41549
1.41547
1.41555
1.41588
1.41641
1.41731
1.41894
1.42188
1.42721
1.43485
1.44209
1.44656
1.44865
1.44962
1.44992
1.44998
1.44997
1.44993
1.4499
1.44984
1.44965
1.44924
1.44864
1.4479
1.44705
1.44615
1.44522
1.4443
1.44339
1.44246
1.44149
1.44046
1.43938
1.43825
1.43705
1.43576
1.43436
1.43284
1.43119
1.42947
1.42773
1.42618
1.4249
1.42381
1.42264
1.42163
1.41278
1.41286
1.41287
1.41307
1.41327
1.41371
1.41429
1.41451
1.41431
1.41361
1.41295
1.41278
1.41288
1.41328
1.41359
1.41346
1.41308
1.41262
1.41251
1.41263
1.41305
1.41373
1.41426
1.4146
1.41487
1.41517
1.41568
1.41669
1.41858
1.42224
1.42872
1.43682
1.44337
1.44658
1.44808
1.44873
1.44893
1.44899
1.44906
1.44911
1.44907
1.44891
1.4486
1.44815
1.4476
1.44697
1.44628
1.44552
1.44465
1.4437
1.44271
1.44172
1.44071
1.43967
1.43857
1.43743
1.43622
1.43494
1.43362
1.43227
1.43087
1.42938
1.4279
1.42641
1.42491
1.42348
1.42211
1.42098
1.40962
1.40947
1.40922
1.40939
1.40984
1.41064
1.41158
1.41223
1.41222
1.41202
1.41167
1.41143
1.41139
1.41145
1.41153
1.41138
1.41117
1.41097
1.41097
1.41117
1.41157
1.41218
1.41269
1.41311
1.41349
1.4139
1.4145
1.41571
1.41821
1.42278
1.43031
1.43848
1.44412
1.4465
1.44763
1.44812
1.44831
1.44839
1.44845
1.4485
1.44843
1.44818
1.44776
1.44729
1.44679
1.44621
1.44554
1.44476
1.44386
1.44287
1.44181
1.44074
1.43968
1.4386
1.43749
1.43631
1.43509
1.43386
1.43267
1.43154
1.43043
1.42928
1.42795
1.42646
1.42487
1.4232
1.42151
1.42016
1.40825
1.40809
1.40804
1.40822
1.40873
1.40942
1.41039
1.41142
1.41164
1.41159
1.41132
1.41091
1.41071
1.41058
1.41062
1.41056
1.41046
1.41028
1.41018
1.41031
1.41061
1.41114
1.41175
1.4123
1.41272
1.41315
1.41385
1.41526
1.41834
1.424
1.43236
1.44031
1.44487
1.44668
1.44762
1.44802
1.44813
1.44819
1.44819
1.44816
1.44802
1.44773
1.44731
1.44681
1.44624
1.4456
1.44491
1.4441
1.4432
1.44222
1.44119
1.4401
1.43898
1.43784
1.43667
1.43545
1.43421
1.43303
1.4319
1.43081
1.42978
1.42874
1.42758
1.42624
1.42466
1.42292
1.4211
1.41959
1.41127
1.41031
1.40948
1.40931
1.40931
1.40963
1.41048
1.41126
1.41159
1.41174
1.41169
1.41154
1.4114
1.41138
1.41135
1.41123
1.4111
1.41082
1.41062
1.4107
1.41094
1.41137
1.41191
1.41239
1.41276
1.41319
1.41399
1.41568
1.41948
1.42625
1.43512
1.44252
1.44593
1.44727
1.448
1.44833
1.44845
1.44847
1.44843
1.44832
1.44813
1.44782
1.44736
1.44675
1.44603
1.44528
1.44455
1.44377
1.44292
1.44197
1.44093
1.43979
1.43856
1.43731
1.43605
1.43479
1.43359
1.43247
1.43136
1.43025
1.42912
1.42796
1.42681
1.42556
1.42416
1.4226
1.42092
1.41958
1.4141
1.41424
1.41355
1.41224
1.41091
1.4105
1.41091
1.41148
1.41196
1.41236
1.41243
1.41237
1.41239
1.41258
1.41273
1.41282
1.41292
1.41286
1.41254
1.41241
1.4125
1.4127
1.41299
1.41323
1.41344
1.41381
1.41471
1.41686
1.42153
1.42934
1.43828
1.44466
1.44712
1.44817
1.44879
1.44912
1.44925
1.44924
1.44912
1.44894
1.44867
1.44827
1.44776
1.44711
1.44635
1.44556
1.44479
1.44399
1.44311
1.44215
1.44108
1.4399
1.43862
1.43731
1.43599
1.43471
1.43351
1.43237
1.43123
1.43003
1.42876
1.42747
1.42623
1.42501
1.42384
1.42264
1.42127
1.42013
1.41657
1.41796
1.41748
1.41566
1.41399
1.41369
1.41384
1.41417
1.41452
1.41481
1.41486
1.41471
1.41455
1.41454
1.4147
1.41494
1.41516
1.41527
1.41518
1.41506
1.41507
1.41519
1.41529
1.41529
1.41533
1.41564
1.41666
1.41936
1.42491
1.4335
1.44195
1.44696
1.44879
1.44966
1.45026
1.45066
1.45081
1.45076
1.45053
1.45031
1.45002
1.44959
1.44905
1.44839
1.44754
1.44655
1.44563
1.44476
1.44384
1.44285
1.44173
1.44045
1.43904
1.43762
1.43625
1.43495
1.43372
1.43252
1.43133
1.4301
1.42881
1.4275
1.4262
1.42496
1.42378
1.42273
1.42164
1.42083
1.4193
1.42093
1.41965
1.41797
1.41734
1.41735
1.41728
1.41728
1.41752
1.4176
1.41749
1.41728
1.41712
1.41709
1.41719
1.41732
1.41741
1.41744
1.41749
1.41752
1.41746
1.41738
1.4173
1.41713
1.41709
1.4174
1.41865
1.42204
1.42866
1.43784
1.44566
1.44958
1.45088
1.45159
1.45213
1.45251
1.45264
1.45256
1.45224
1.45192
1.45157
1.4511
1.45052
1.44984
1.44901
1.44801
1.44696
1.44597
1.44498
1.44393
1.44275
1.44139
1.43987
1.43837
1.43699
1.4357
1.43449
1.43332
1.43214
1.4309
1.42951
1.42795
1.42645
1.42519
1.42407
1.42312
1.42215
1.42146
1.42438
1.42302
1.42026
1.41963
1.41958
1.41909
1.41849
1.41844
1.41873
1.41873
1.4185
1.4183
1.41825
1.41832
1.41841
1.41854
1.41878
1.41899
1.4192
1.41933
1.41927
1.41904
1.41877
1.41849
1.41842
1.41879
1.42037
1.42436
1.43201
1.4414
1.44869
1.4516
1.45259
1.45323
1.45373
1.45404
1.45412
1.45398
1.45359
1.45319
1.45282
1.45235
1.45176
1.45108
1.45028
1.44932
1.44825
1.44716
1.44608
1.44495
1.44369
1.44224
1.44065
1.43909
1.43769
1.43643
1.43525
1.43412
1.43303
1.43186
1.43058
1.42912
1.42757
1.42613
1.4249
1.42383
1.42278
1.42211
1.43046
1.42366
1.42019
1.42051
1.42041
1.41922
1.4185
1.41859
1.41903
1.41905
1.41882
1.41862
1.41844
1.41844
1.41851
1.41873
1.41907
1.41939
1.4196
1.41973
1.41959
1.41935
1.41904
1.41874
1.41867
1.41922
1.42136
1.42642
1.43512
1.44465
1.45107
1.45304
1.45378
1.45436
1.45481
1.45505
1.4551
1.45495
1.45456
1.45409
1.45369
1.45323
1.45267
1.45197
1.45106
1.45002
1.44892
1.44782
1.44669
1.4455
1.4442
1.44279
1.4413
1.43979
1.43837
1.43712
1.43595
1.43484
1.43377
1.43266
1.43147
1.43018
1.42879
1.42732
1.42585
1.42453
1.42324
1.42245
1.41717
1.41662
1.41874
1.42048
1.41964
1.41807
1.41797
1.41847
1.41873
1.41872
1.41865
1.41868
1.4185
1.41846
1.41852
1.41869
1.41901
1.41939
1.41966
1.41984
1.41967
1.41927
1.41892
1.41866
1.41865
1.41953
1.42234
1.42858
1.43814
1.44755
1.45287
1.45423
1.4547
1.45509
1.45537
1.45547
1.45542
1.45518
1.45474
1.45422
1.45373
1.45323
1.45261
1.45188
1.45101
1.45006
1.44902
1.44793
1.44681
1.44564
1.4444
1.44312
1.4418
1.44041
1.43897
1.43762
1.43642
1.43524
1.4341
1.433
1.4319
1.43076
1.42954
1.42818
1.42665
1.42499
1.4234
1.42229
1.31777
1.40605
1.41885
1.41926
1.41865
1.41782
1.41783
1.41777
1.41753
1.41793
1.41836
1.41863
1.41857
1.41859
1.41866
1.4187
1.41879
1.41891
1.41912
1.41933
1.41933
1.41909
1.41873
1.4185
1.4187
1.42006
1.42372
1.43107
1.44119
1.44999
1.45398
1.45494
1.45522
1.45547
1.45566
1.4557
1.45557
1.45524
1.4547
1.45398
1.45336
1.45282
1.45222
1.4515
1.45075
1.44985
1.44883
1.44772
1.44659
1.44544
1.44424
1.443
1.44174
1.44046
1.43907
1.43764
1.43635
1.43516
1.43404
1.43297
1.43194
1.43087
1.42969
1.42838
1.42691
1.42521
1.42339
1.42193
0.912493
1.32049
1.41312
1.41993
1.4202
1.41909
1.41785
1.41664
1.41631
1.41745
1.41829
1.41865
1.41864
1.41877
1.41896
1.41893
1.41889
1.41875
1.41862
1.41855
1.4184
1.4182
1.41813
1.41827
1.41891
1.42081
1.4254
1.43381
1.4442
1.45206
1.4547
1.4553
1.45539
1.45549
1.45559
1.45558
1.45539
1.455
1.45434
1.45357
1.45293
1.45236
1.45176
1.45105
1.4502
1.44924
1.44814
1.44693
1.44576
1.44469
1.44367
1.44262
1.44146
1.44023
1.43892
1.4375
1.4361
1.43483
1.43369
1.43263
1.43162
1.43054
1.42934
1.42802
1.42659
1.42498
1.42317
1.4215
0.638903
0.918218
1.31267
1.42063
1.42373
1.41827
1.41665
1.41543
1.41598
1.41778
1.41834
1.41852
1.41849
1.41886
1.41931
1.41938
1.41924
1.41887
1.41841
1.41795
1.41761
1.41749
1.41762
1.41805
1.41914
1.42174
1.42744
1.43689
1.44714
1.45364
1.45521
1.45541
1.45531
1.45527
1.45528
1.45522
1.455
1.4546
1.45395
1.45318
1.45257
1.452
1.45142
1.4507
1.44977
1.44872
1.44753
1.44625
1.44498
1.44387
1.44287
1.44193
1.44094
1.43983
1.43863
1.43732
1.43585
1.43439
1.43307
1.4319
1.43085
1.42987
1.42876
1.42744
1.42601
1.42441
1.42269
1.42104
0.620147
0.641138
0.904153
1.31005
1.40288
1.41342
1.41504
1.41568
1.41744
1.41857
1.41814
1.41764
1.41784
1.4187
1.41935
1.41941
1.41928
1.41901
1.4184
1.41752
1.41698
1.41696
1.41721
1.4179
1.41938
1.42283
1.42973
1.44013
1.44984
1.45451
1.45537
1.45538
1.45519
1.45497
1.4549
1.4548
1.45458
1.45417
1.45355
1.45281
1.45219
1.45157
1.45094
1.45022
1.44928
1.44822
1.44703
1.44574
1.4444
1.44314
1.44209
1.44111
1.44023
1.43931
1.43823
1.43703
1.43567
1.43408
1.43248
1.43101
1.42971
1.42854
1.4275
1.42638
1.42509
1.42368
1.42208
1.42052
0.62007
0.620167
0.636741
0.897819
1.29541
1.42058
1.42277
1.41866
1.41818
1.41853
1.41719
1.41655
1.41733
1.41824
1.41881
1.41897
1.41903
1.41895
1.41841
1.4174
1.41668
1.41664
1.41698
1.41786
1.4197
1.42396
1.43212
1.44314
1.45181
1.45482
1.45535
1.45527
1.45503
1.45476
1.4546
1.4545
1.45432
1.45392
1.4533
1.4526
1.45194
1.45122
1.45048
1.44967
1.44874
1.4477
1.44657
1.44535
1.44402
1.44267
1.4415
1.44048
1.43958
1.43875
1.43781
1.4367
1.43541
1.43382
1.43202
1.43024
1.42865
1.42725
1.42598
1.42482
1.42373
1.42254
1.42118
1.41994
0.62007
0.62007
0.620134
0.637422
0.876543
1.27889
1.40237
1.41345
1.41616
1.41734
1.41584
1.41624
1.41764
1.41805
1.4183
1.41848
1.41881
1.41882
1.41837
1.41747
1.4167
1.4164
1.41679
1.41777
1.42
1.42522
1.43461
1.44574
1.45289
1.45489
1.45521
1.45508
1.45483
1.45459
1.45443
1.45431
1.45412
1.45373
1.45313
1.45238
1.45162
1.45081
1.44997
1.44909
1.44816
1.44718
1.44615
1.44503
1.44379
1.44242
1.44113
1.44008
1.43913
1.43829
1.43742
1.43633
1.43505
1.43345
1.43155
1.42961
1.42785
1.42627
1.42485
1.42353
1.42236
1.42132
1.4202
1.41926
0.62007
0.62007
0.62007
0.620141
0.63241
0.863522
1.27402
1.40198
1.41921
1.41824
1.41507
1.41688
1.4187
1.41826
1.41815
1.4184
1.41881
1.41879
1.41816
1.41729
1.41658
1.41624
1.41663
1.4177
1.42044
1.42676
1.43723
1.4478
1.45347
1.45485
1.45504
1.45491
1.45464
1.45444
1.45434
1.4542
1.45396
1.45354
1.45292
1.45212
1.45119
1.45025
1.44931
1.44841
1.44757
1.44671
1.44578
1.44478
1.44362
1.44228
1.44091
1.43975
1.43872
1.43779
1.43689
1.43581
1.43453
1.43297
1.43114
1.42921
1.42739
1.4257
1.42416
1.42276
1.42145
1.42034
1.4193
1.41863
0.62007
0.62007
0.62007
0.62007
0.62011
0.632314
0.831802
1.24276
1.42099
1.42113
1.41195
1.41823
1.42087
1.41863
1.41834
1.41863
1.41864
1.41827
1.41745
1.41685
1.41651
1.41635
1.41678
1.41804
1.42142
1.42891
1.44012
1.44965
1.45383
1.45485
1.45507
1.45496
1.45462
1.45442
1.45433
1.4542
1.45393
1.45343
1.45273
1.45182
1.45076
1.44973
1.44879
1.44792
1.44712
1.44633
1.44544
1.44447
1.44338
1.44211
1.44073
1.43944
1.43831
1.43726
1.43623
1.43512
1.43385
1.43239
1.4308
1.42911
1.42736
1.42558
1.42382
1.42226
1.42091
1.41975
1.41862
1.41804
0.62007
0.62007
0.62007
0.62007
0.62007
0.620109
0.627275
0.81166
1.24512
1.38003
1.40711
1.42722
1.4206
1.4163
1.41766
1.41795
1.41775
1.41711
1.41658
1.41647
1.41658
1.41683
1.41735
1.41893
1.42315
1.43185
1.44331
1.45139
1.45433
1.45511
1.45536
1.45522
1.45475
1.45454
1.45445
1.45432
1.45405
1.45346
1.45265
1.45167
1.45049
1.4494
1.4485
1.44768
1.44691
1.44609
1.44514
1.44412
1.44302
1.44181
1.44047
1.43914
1.43794
1.4368
1.43566
1.43447
1.43321
1.43185
1.43038
1.42886
1.4273
1.42569
1.42399
1.42222
1.42065
1.41942
1.41822
1.41754
0.62007
0.62007
0.62007
0.62007
0.62007
0.62007
0.620087
0.626519
0.787095
1.19488
1.40589
1.43606
1.41755
1.4109
1.41779
1.41791
1.41687
1.41625
1.41635
1.41686
1.41731
1.41785
1.41863
1.42065
1.42585
1.43562
1.44645
1.45295
1.45504
1.45566
1.45587
1.45557
1.45498
1.45479
1.45469
1.45461
1.45438
1.4537
1.45274
1.45161
1.45036
1.44928
1.44843
1.44764
1.4469
1.44603
1.445
1.44386
1.44267
1.44142
1.44022
1.43898
1.4377
1.43644
1.4352
1.43394
1.43265
1.43133
1.42999
1.4286
1.42719
1.42573
1.42419
1.42251
1.42074
1.41928
1.418
1.41713
0.62007
0.62007
0.62007
0.62007
0.62007
0.62007
0.62007
0.620085
0.624232
0.762056
1.18304
1.39047
1.39947
1.41658
1.42101
1.41849
1.41642
1.41589
1.4164
1.41764
1.41846
1.41904
1.4199
1.42248
1.42884
1.43935
1.4489
1.45391
1.45547
1.45616
1.45648
1.45619
1.45546
1.45518
1.45504
1.45492
1.45467
1.45394
1.4529
1.45167
1.45043
1.44935
1.44856
1.44781
1.44704
1.44614
1.44505
1.44375
1.44244
1.44128
1.44009
1.43886
1.43757
1.43618
1.4348
1.43348
1.43216
1.43084
1.42958
1.42833
1.42701
1.42563
1.42421
1.42269
1.42095
1.41927
1.41782
1.41676
0.62007
0.62007
0.62007
0.62007
0.62007
0.62007
0.62007
0.62007
0.620078
0.623097
0.740284
1.1261
1.37781
1.43651
1.4284
1.41804
1.41613
1.41528
1.41607
1.4178
1.4192
1.41976
1.42073
1.42413
1.4318
1.44254
1.4504
1.45416
1.45555
1.45634
1.45685
1.45685
1.45619
1.45564
1.4554
1.45517
1.45489
1.45419
1.45313
1.45182
1.45058
1.44963
1.44887
1.44811
1.44727
1.44627
1.44511
1.44379
1.44254
1.44137
1.44014
1.43886
1.43751
1.43603
1.43448
1.43306
1.43173
1.43044
1.42922
1.42805
1.42681
1.42551
1.42416
1.4227
1.42101
1.41918
1.41755
1.4163
0.62007
0.62007
0.62007
0.62007
0.62007
0.62007
0.62007
0.62007
0.62007
0.620075
0.622199
0.708341
1.08305
1.38787
1.4139
1.41508
1.41614
1.41594
1.41647
1.41785
1.41935
1.42008
1.42156
1.42592
1.43471
1.44512
1.45132
1.45406
1.45561
1.4565
1.45705
1.45722
1.45682
1.45616
1.45573
1.45534
1.45498
1.45429
1.45328
1.45207
1.45095
1.45003
1.44915
1.44826
1.44732
1.44626
1.44496
1.44364
1.44251
1.44141
1.4402
1.43889
1.43745
1.43583
1.43415
1.43265
1.43136
1.43014
1.42895
1.42779
1.42659
1.4253
1.42395
1.42249
1.42081
1.41891
1.41716
1.41568
0.62007
0.62007
0.62007
0.62007
0.62007
0.62007
0.62007
0.62007
0.62007
0.62007
0.620073
0.621116
0.68951
1.03838
1.35306
1.42225
1.41828
1.41705
1.41827
1.41913
1.41958
1.42057
1.42288
1.42815
1.43745
1.44696
1.45193
1.45396
1.45496
1.45572
1.4565
1.45711
1.45715
1.45657
1.45599
1.45548
1.45491
1.45418
1.45339
1.45252
1.45165
1.45073
1.44964
1.44848
1.44735
1.4461
1.44462
1.44338
1.44231
1.44126
1.44005
1.4387
1.43718
1.43549
1.4337
1.43217
1.4309
1.42968
1.42844
1.42724
1.42605
1.42479
1.42347
1.42208
1.42048
1.41857
1.4167
1.415
0.62007
0.62007
0.62007
0.62007
0.62007
0.62007
0.62007
0.62007
0.62007
0.62007
0.62007
0.620071
0.620789
0.666549
0.982337
1.33587
1.41513
1.41966
1.42017
1.41868
1.4192
1.42128
1.4244
1.43013
1.43924
1.44784
1.45247
1.45392
1.45465
1.45528
1.456
1.45668
1.45684
1.45664
1.45582
1.45507
1.4545
1.45403
1.45347
1.45304
1.45241
1.45155
1.45033
1.44888
1.44739
1.44579
1.444
1.44246
1.44133
1.44034
1.43938
1.43812
1.43663
1.43492
1.433
1.43137
1.43016
1.42901
1.42787
1.42669
1.42544
1.42412
1.42279
1.42139
1.41989
1.41808
1.41616
1.41425
0.62007
0.62007
0.62007
0.62007
0.62007
0.62007
0.62007
0.62007
0.62007
0.62007
0.62007
0.62007
0.620071
0.620392
0.653443
0.923006
1.29471
1.4036
1.41711
1.41271
1.41817
1.42193
1.42504
1.43047
1.43973
1.44861
1.45246
1.45392
1.45459
1.4551
1.45575
1.45633
1.45653
1.45634
1.4555
1.45446
1.45377
1.45339
1.45329
1.45328
1.45277
1.45185
1.45057
1.44905
1.44739
1.44553
1.44356
1.44162
1.44001
1.43881
1.43781
1.43686
1.43557
1.43406
1.43216
1.43027
1.42894
1.4278
1.42679
1.42584
1.42469
1.42341
1.42208
1.42062
1.41904
1.41719
1.41524
1.41326
0.62007
0.62007
0.62007
0.62007
0.62007
0.62007
0.62007
0.62007
0.62007
0.62007
0.62007
0.62007
0.62007
0.62007
0.620267
0.638207
0.869334
1.26662
1.39812
1.40889
1.42291
1.42446
1.42401
1.4303
1.44169
1.44966
1.45261
1.45387
1.4545
1.45514
1.45572
1.45623
1.45647
1.45622
1.45537
1.45417
1.4533
1.45278
1.45267
1.45292
1.45269
1.45171
1.45037
1.44878
1.44704
1.44514
1.44319
1.44123
1.43929
1.43774
1.43663
1.43569
1.43449
1.43306
1.43125
1.42918
1.42749
1.42622
1.42511
1.4242
1.42323
1.42202
1.42071
1.41922
1.41756
1.41567
1.41375
1.41177
0.62007
0.62007
0.62007
0.62007
0.62007
0.62007
0.62007
0.62007
0.62007
0.62007
0.62007
0.62007
0.62007
0.62007
0.62007
0.620139
0.632303
0.811835
1.20292
1.39429
1.43642
1.42564
1.41851
1.43099
1.44463
1.45082
1.45295
1.45418
1.45502
1.45567
1.45607
1.45643
1.45653
1.45621
1.45539
1.45413
1.4531
1.45253
1.45222
1.45211
1.45147
1.45026
1.44864
1.44677
1.44509
1.44358
1.44217
1.44074
1.43904
1.43726
1.43601
1.43491
1.43358
1.43206
1.43024
1.42807
1.42602
1.42457
1.42339
1.42238
1.42128
1.42004
1.41868
1.41713
1.4154
1.41348
1.41169
1.40978
0.62007
0.62007
0.62007
0.62007
0.62007
0.62007
0.62007
0.62007
0.62007
0.62007
0.62007
0.62007
0.62007
0.62007
0.62007
0.62007
0.620108
0.625658
0.760024
1.14195
1.40592
1.40772
1.42171
1.43624
1.44678
1.45115
1.45396
1.45562
1.45611
1.45647
1.45688
1.4571
1.45684
1.45636
1.45552
1.45413
1.45287
1.45229
1.45191
1.45132
1.45022
1.44884
1.447
1.44471
1.44259
1.4412
1.44017
1.43921
1.43807
1.43651
1.43506
1.43376
1.43229
1.43066
1.42881
1.42667
1.4245
1.42289
1.42172
1.42064
1.41942
1.41805
1.41654
1.41484
1.41293
1.41091
1.4092
1.40737
0.62007
0.62007
0.62007
0.62007
0.62007
0.62007
0.62007
0.62007
0.62007
0.62007
0.62007
0.62007
0.62007
0.62007
0.62007
0.62007
0.62007
0.620081
0.622883
0.714545
1.08201
1.35116
1.44079
1.45004
1.44924
1.45283
1.4563
1.45735
1.45707
1.45737
1.45791
1.45812
1.45763
1.4568
1.45563
1.45381
1.4522
1.45163
1.45118
1.45026
1.44908
1.44769
1.44587
1.44355
1.4411
1.43942
1.43835
1.43738
1.43633
1.43498
1.43352
1.43215
1.43066
1.42902
1.42723
1.42521
1.42308
1.42133
1.42006
1.41885
1.41754
1.41614
1.41462
1.41289
1.41085
1.4087
1.407
1.40527
0.62007
0.62007
0.62007
0.62007
0.62007
0.62007
0.62007
0.62007
0.62007
0.62007
0.62007
0.62007
0.62007
0.62007
0.62007
0.62007
0.62007
0.62007
0.620074
0.621325
0.680484
0.986056
1.36091
1.43763
1.44634
1.45592
1.45631
1.45581
1.45621
1.45757
1.45844
1.45864
1.45826
1.45729
1.45566
1.4533
1.45132
1.45043
1.44959
1.44857
1.44752
1.44626
1.44468
1.44272
1.44044
1.43845
1.43718
1.43604
1.43481
1.43337
1.43182
1.4304
1.42893
1.42729
1.42554
1.42367
1.42175
1.42002
1.41868
1.41752
1.41631
1.41496
1.41339
1.4115
1.40922
1.40696
1.40526
1.40363
0.62007
0.62007
0.62007
0.62007
0.62007
0.62007
0.62007
0.62007
0.62007
0.62007
0.62007
0.62007
0.62007
0.62007
0.62007
0.62007
0.62007
0.62007
0.62007
0.620072
0.620578
0.652993
0.92993
1.31027
1.44783
1.46164
1.45469
1.4536
1.45601
1.45721
1.45724
1.45676
1.45638
1.45583
1.45457
1.45239
1.45018
1.44868
1.44747
1.44654
1.44567
1.44455
1.44319
1.4416
1.43972
1.4378
1.43636
1.43504
1.43362
1.43203
1.4303
1.42867
1.4271
1.42547
1.42387
1.42232
1.42078
1.41932
1.4181
1.41698
1.41574
1.41421
1.41241
1.41029
1.40797
1.40594
1.40432
1.40279
0.62007
0.62007
0.62007
0.62007
0.62007
0.62007
0.62007
0.62007
0.62007
0.62007
0.62007
0.62007
0.62007
0.62007
0.62007
0.62007
0.62007
0.62007
0.62007
0.62007
0.620071
0.620254
0.638605
0.862606
1.3058
1.43568
1.44839
1.4557
1.45722
1.45617
1.45456
1.45286
1.45223
1.45203
1.45144
1.45023
1.44853
1.44693
1.44566
1.44479
1.44399
1.44298
1.44176
1.4404
1.43887
1.43713
1.4356
1.43414
1.43255
1.43081
1.42896
1.42712
1.42546
1.42396
1.4226
1.42129
1.41998
1.41867
1.41746
1.41625
1.41488
1.41319
1.41129
1.40922
1.40717
1.40538
1.40381
1.40237
0.62007
0.62007
0.62007
0.62007
0.62007
0.62007
0.62007
0.62007
0.62007
0.62007
0.62007
0.62007
0.62007
0.62007
0.62007
0.62007
0.62007
0.62007
0.62007
0.62007
0.62007
0.62007
0.620142
0.63044
0.824822
1.25029
1.44728
1.46236
1.45991
1.45486
1.45364
1.45207
1.45098
1.44951
1.44837
1.44792
1.44694
1.44579
1.44443
1.44344
1.44262
1.44182
1.44078
1.43955
1.43817
1.43647
1.43464
1.433
1.43136
1.42961
1.4278
1.426
1.42434
1.42295
1.42169
1.42043
1.4191
1.41774
1.41648
1.41519
1.41374
1.41206
1.41029
1.40846
1.40663
1.40497
1.40354
1.40219
0.62007
0.62007
0.62007
0.62007
0.62007
0.62007
0.62007
0.62007
0.62007
0.62007
0.62007
0.62007
0.62007
0.62007
0.62007
0.62007
0.62007
0.62007
0.62007
0.62007
0.62007
0.62007
0.62007
0.620099
0.626386
0.78223
1.23551
1.42393
1.45023
1.45126
1.45426
1.4555
1.45227
1.44905
1.4476
1.4472
1.44659
1.44544
1.44392
1.44254
1.44153
1.44081
1.4402
1.43911
1.43775
1.43591
1.43363
1.43171
1.43007
1.42848
1.42689
1.42532
1.42374
1.4223
1.42105
1.41975
1.41834
1.41689
1.41555
1.41425
1.41285
1.41131
1.40965
1.40798
1.40626
1.40475
1.40343
1.40219
0.62007
0.62007
0.62007
0.62007
0.62007
0.62007
0.62007
0.62007
0.62007
0.62007
0.62007
0.62007
0.62007
0.62007
0.62007
0.62007
0.62007
0.62007
0.62007
0.62007
0.62007
0.62007
0.62007
0.62007
0.620084
0.6238
0.758165
1.17149
1.4361
1.45581
1.4601
1.45795
1.45281
1.44925
1.44776
1.44728
1.44669
1.44547
1.44368
1.44196
1.44075
1.43997
1.43971
1.43888
1.43745
1.43531
1.43267
1.4307
1.4291
1.4278
1.4265
1.42506
1.42356
1.42204
1.42058
1.41915
1.41769
1.41623
1.41484
1.41356
1.41222
1.4108
1.40931
1.40781
1.40617
1.40468
1.40338
1.40217
0.62007
0.62007
0.62007
0.62007
0.62007
0.62007
0.62007
0.62007
0.62007
0.62007
0.62007
0.62007
0.62007
0.62007
0.62007
0.62007
0.62007
0.62007
0.62007
0.62007
0.62007
0.62007
0.62007
0.62007
0.62007
0.620076
0.622694
0.722355
1.15386
1.39591
1.44556
1.45062
1.44533
1.44605
1.44625
1.44686
1.44647
1.44517
1.44326
1.44144
1.44016
1.43927
1.43886
1.43807
1.43654
1.43425
1.43175
1.43009
1.42876
1.4277
1.42653
1.4251
1.42353
1.42184
1.42014
1.4186
1.41715
1.41577
1.41436
1.41303
1.41176
1.41057
1.40927
1.40791
1.40638
1.40484
1.40341
1.40214
0.62007
0.62007
0.62007
0.62007
0.62007
0.62007
0.62007
0.62007
0.62007
0.62007
0.62007
0.62007
0.62007
0.62007
0.62007
0.62007
0.62007
0.62007
0.62007
0.62007
0.62007
0.62007
0.62007
0.62007
0.62007
0.62007
0.620074
0.621427
0.705719
1.06521
1.42043
1.45536
1.4497
1.44888
1.44776
1.44795
1.44717
1.4458
1.44375
1.44178
1.44029
1.43911
1.43811
1.4368
1.43502
1.43285
1.43106
1.42975
1.4287
1.42792
1.42689
1.42545
1.42375
1.42166
1.41964
1.41826
1.41705
1.41568
1.41421
1.41276
1.41144
1.4103
1.40915
1.4079
1.40651
1.40503
1.40349
1.40205
0.62007
0.62007
0.62007
0.62007
0.62007
0.62007
0.62007
0.62007
0.62007
0.62007
0.62007
0.62007
0.62007
0.62007
0.62007
0.62007
0.62007
0.62007
0.62007
0.62007
0.62007
0.62007
0.62007
0.62007
0.62007
0.62007
0.62007
0.620072
0.621009
0.673796
1.03555
1.36301
1.45206
1.4583
1.45271
1.45071
1.44953
1.4474
1.44514
1.44307
1.44134
1.43958
1.43787
1.43602
1.43393
1.43204
1.43067
1.42966
1.42896
1.42833
1.42713
1.42553
1.42356
1.42124
1.41954
1.41818
1.41699
1.41572
1.41429
1.41275
1.41127
1.40998
1.4088
1.40767
1.40639
1.40502
1.40353
1.40195
0.62007
0.62007
0.62007
0.62007
0.62007
0.62007
0.62007
0.62007
0.62007
0.62007
0.62007
0.62007
0.62007
0.62007
0.62007
0.62007
0.62007
0.62007
0.62007
0.62007
0.62007
0.62007
0.62007
0.62007
0.62007
0.62007
0.62007
0.62007
0.620071
0.620495
0.658989
0.948527
1.34642
1.45453
1.44892
1.45064
1.45031
1.44706
1.44519
1.44355
1.44187
1.4402
1.43817
1.43585
1.43366
1.43211
1.43103
1.43031
1.42974
1.42861
1.42708
1.42517
1.42281
1.42067
1.41921
1.418
1.41703
1.41597
1.41462
1.41304
1.41131
1.40982
1.40847
1.40731
1.40615
1.40483
1.40341
1.40174
0.62007
0.62007
0.62007
0.62007
0.62007
0.62007
0.62007
0.62007
0.62007
0.62007
0.62007
0.62007
0.62007
0.62007
0.62007
0.62007
0.62007
0.62007
0.62007
0.62007
0.62007
0.62007
0.62007
0.62007
0.62007
0.62007
0.62007
0.62007
0.62007
0.620071
0.620298
0.642246
0.880532
1.31374
1.42878
1.44861
1.44914
1.44663
1.44439
1.4425
1.44153
1.44023
1.43815
1.43573
1.43396
1.43293
1.43222
1.43167
1.43061
1.42895
1.42696
1.42449
1.42197
1.42021
1.41894
1.41803
1.41743
1.41655
1.4152
1.41348
1.41151
1.40987
1.40844
1.40715
1.40598
1.40465
1.40326
1.40153
0.62007
0.62007
0.62007
0.62007
0.62007
0.62007
0.62007
0.62007
0.62007
0.62007
0.62007
0.62007
0.62007
0.62007
0.62007
0.62007
0.62007
0.62007
0.62007
0.62007
0.62007
0.62007
0.62007
0.62007
0.62007
0.62007
0.62007
0.62007
0.62007
0.62007
0.62007
0.620164
0.631546
0.830385
1.2382
1.43933
1.45254
1.44682
1.44269
1.44073
1.44053
1.43943
1.43766
1.43576
1.43448
1.43373
1.43306
1.43235
1.43083
1.42896
1.42673
1.42405
1.42172
1.4203
1.41922
1.41862
1.41814
1.41716
1.41569
1.41379
1.4118
1.41015
1.4087
1.40734
1.40607
1.40469
1.40327
1.40149
0.62007
0.62007
0.62007
0.62007
0.62007
0.62007
0.62007
0.62007
0.62007
0.62007
0.62007
0.62007
0.62007
0.62007
0.62007
0.62007
0.62007
0.62007
0.62007
0.62007
0.62007
0.62007
0.62007
0.62007
0.62007
0.62007
0.62007
0.62007
0.62007
0.62007
0.62007
0.62007
0.620106
0.62652
0.765708
1.17786
1.42175
1.44298
1.44065
1.44038
1.4408
1.43988
1.43867
1.43646
1.43492
1.43386
1.43292
1.43184
1.43015
1.4283
1.42622
1.42389
1.42208
1.42087
1.41995
1.41935
1.41845
1.41712
1.41548
1.41355
1.41181
1.41031
1.4089
1.40758
1.40628
1.40489
1.40344
1.40169
0.62007
0.62007
0.62007
0.62007
0.62007
0.62007
0.62007
0.62007
0.62007
0.62007
0.62007
0.62007
0.62007
0.62007
0.62007
0.62007
0.62007
0.62007
0.62007
0.62007
0.62007
0.62007
0.62007
0.62007
0.62007
0.62007
0.62007
0.62007
0.62007
0.62007
0.62007
0.62007
0.62007
0.620084
0.622969
0.718379
1.11298
1.38242
1.43986
1.44557
1.44538
1.44335
1.44005
1.43803
1.43624
1.43419
1.43241
1.43066
1.42906
1.42747
1.42574
1.42411
1.42285
1.42169
1.42059
1.41947
1.41814
1.4164
1.41463
1.41314
1.41167
1.41026
1.40892
1.40757
1.40622
1.40483
1.40339
1.40184
0.62007
0.62007
0.62007
0.62007
0.62007
0.62007
0.62007
0.62007
0.62007
0.62007
0.62007
0.62007
0.62007
0.62007
0.62007
0.62007
0.62007
0.62007
0.62007
0.62007
0.62007
0.62007
0.62007
0.62007
0.62007
0.62007
0.62007
0.62007
0.62007
0.62007
0.62007
0.62007
0.62007
0.62007
0.620074
0.621407
0.685332
0.999975
1.35361
1.44724
1.44733
1.44356
1.44007
1.43748
1.43583
1.43405
1.43184
1.43041
1.42884
1.42722
1.42581
1.42474
1.42371
1.42242
1.4209
1.41915
1.4172
1.41525
1.41373
1.41253
1.41139
1.41013
1.40874
1.40729
1.40576
1.40429
1.40297
1.40164
0.62007
0.62007
0.62007
0.62007
0.62007
0.62007
0.62007
0.62007
0.62007
0.62007
0.62007
0.62007
0.62007
0.62007
0.62007
0.62007
0.62007
0.62007
0.62007
0.62007
0.62007
0.62007
0.62007
0.62007
0.62007
0.62007
0.62007
0.62007
0.62007
0.62007
0.62007
0.62007
0.62007
0.62007
0.62007
0.620072
0.620634
0.652473
0.907917
1.32281
1.42538
1.43485
1.43553
1.43523
1.4339
1.43312
1.43172
1.4309
1.42946
1.42773
1.42647
1.42562
1.42464
1.42318
1.42141
1.41911
1.41645
1.41439
1.41303
1.41205
1.41119
1.40993
1.40849
1.4068
1.405
1.40353
1.4023
1.4012
0.62007
0.62007
0.62007
0.62007
0.62007
0.62007
0.62007
0.62007
0.62007
0.62007
0.62007
0.62007
0.62007
0.62007
0.62007
0.62007
0.62007
0.62007
0.62007
0.62007
0.62007
0.62007
0.62007
0.62007
0.62007
0.62007
0.62007
0.62007
0.62007
0.62007
0.62007
0.62007
0.62007
0.62007
0.62007
0.62007
0.620071
0.620242
0.635492
0.838334
1.21834
1.42642
1.44648
1.44056
1.43566
1.43277
1.43242
1.43117
1.42917
1.42766
1.42651
1.42563
1.42476
1.42329
1.42162
1.4194
1.41646
1.41423
1.41281
1.41186
1.41124
1.41011
1.40866
1.40678
1.40463
1.40298
1.40164
1.40052
0.62007
0.62007
0.62007
0.62007
0.62007
0.62007
0.62007
0.62007
0.62007
0.62007
0.62007
0.62007
0.62007
0.62007
0.62007
0.62007
0.62007
0.62007
0.62007
0.62007
0.62007
0.62007
0.62007
0.62007
0.62007
0.62007
0.62007
0.62007
0.62007
0.62007
0.62007
0.62007
0.62007
0.62007
0.62007
0.62007
0.62007
0.62007
0.620127
0.626963
0.748786
1.1238
1.39219
1.43332
1.43581
1.43619
1.4351
1.43278
1.42902
1.42649
1.42513
1.42394
1.4232
1.42248
1.42115
1.41925
1.41671
1.41459
1.4131
1.41199
1.4112
1.41013
1.40873
1.40689
1.40473
1.40294
1.4015
1.40016
0.62007
0.62007
0.62007
0.62007
0.62007
0.62007
0.62007
0.62007
0.62007
0.62007
0.62007
0.62007
0.62007
0.62007
0.62007
0.62007
0.62007
0.62007
0.62007
0.62007
0.62007
0.62007
0.62007
0.62007
0.62007
0.62007
0.62007
0.62007
0.62007
0.62007
0.62007
0.62007
0.62007
0.62007
0.62007
0.62007
0.62007
0.62007
0.62007
0.620084
0.622217
0.689264
1.02873
1.32946
1.43058
1.44079
1.43983
1.43343
1.42846
1.42622
1.4245
1.42309
1.42194
1.42095
1.41982
1.41837
1.41648
1.41472
1.41326
1.41208
1.411
1.4097
1.40826
1.4066
1.40484
1.40321
1.40179
1.40031
0.62007
0.62007
0.62007
0.62007
0.62007
0.62007
0.62007
0.62007
0.62007
0.62007
0.62007
0.62007
0.62007
0.62007
0.62007
0.62007
0.62007
0.62007
0.62007
0.62007
0.62007
0.62007
0.62007
0.62007
0.62007
0.62007
0.62007
0.62007
0.62007
0.62007
0.62007
0.62007
0.62007
0.62007
0.62007
0.62007
0.62007
0.62007
0.62007
0.62007
0.620073
0.620744
0.658368
0.890959
1.27945
1.42011
1.42909
1.42822
1.42966
1.42891
1.42756
1.4254
1.42262
1.42058
1.41889
1.41759
1.41641
1.41494
1.41352
1.41214
1.4106
1.40894
1.40736
1.40597
1.40471
1.40351
1.40216
1.40071
0.62007
0.62007
0.62007
0.62007
0.62007
0.62007
0.62007
0.62007
0.62007
0.62007
0.62007
0.62007
0.62007
0.62007
0.62007
0.62007
0.62007
0.62007
0.62007
0.62007
0.62007
0.62007
0.62007
0.62007
0.62007
0.62007
0.62007
0.62007
0.62007
0.62007
0.62007
0.62007
0.62007
0.62007
0.62007
0.62007
0.62007
0.62007
0.62007
0.62007
0.62007
0.620071
0.620302
0.633019
0.793809
1.18103
1.38176
1.43508
1.43505
1.43132
1.42894
1.42631
1.42381
1.4217
1.41966
1.41784
1.41654
1.41534
1.414
1.41243
1.41036
1.40833
1.40679
1.40546
1.40444
1.40363
1.4024
1.401
0.62007
0.62007
0.62007
0.62007
0.62007
0.62007
0.62007
0.62007
0.62007
0.62007
0.62007
0.62007
0.62007
0.62007
0.62007
0.62007
0.62007
0.62007
0.62007
0.62007
0.62007
0.62007
0.62007
0.62007
0.62007
0.62007
0.62007
0.62007
0.62007
0.62007
0.62007
0.62007
0.62007
0.62007
0.62007
0.62007
0.62007
0.62007
0.62007
0.62007
0.62007
0.62007
0.62007
0.620108
0.624175
0.721396
1.03406
1.36304
1.41461
1.42078
1.42158
1.42383
1.42317
1.42174
1.41984