/*--------------------------------*- C++ -*----------------------------------*\
| =========                 |                                                 |
| \\      /  F ield         | OpenFOAM: The Open Source CFD Toolbox           |
|  \\    /   O peration     | Version:  2306                                  |
|   \\  /    A nd           | Website:  www.openfoam.com                      |
|    \\/     M anipulation  |                                                 |
\*---------------------------------------------------------------------------*/
FoamFile
{
    version     2.0;
    format      ascii;
    arch        "LSB;label=32;scalar=64";
    class       volScalarField;
    location    "6e-05";
    object      T;
}
// * * * * * * * * * * * * * * * * * * * * * * * * * * * * * * * * * * * * * //

dimensions      [0 0 0 1 0 0 0];

internalField   nonuniform List<scalar> 
9032
(
269.412
269.371
269.32
269.301
269.333
269.438
269.578
269.677
269.74
269.745
269.748
269.788
269.847
269.907
269.944
269.973
269.991
270.004
270.019
270.037
270.047
270.047
270.038
270.034
270.07
270.13
270.203
270.277
270.39
270.581
270.911
271.413
271.959
272.348
272.574
272.712
272.787
272.831
272.862
272.888
272.915
272.936
272.937
272.923
272.892
272.838
272.769
272.696
272.633
272.574
272.518
272.46
272.4
272.335
272.263
272.184
272.095
271.996
271.885
271.758
271.615
271.462
271.315
271.188
271.088
271.002
270.931
270.903
269.701
269.64
269.631
269.642
269.677
269.758
269.832
269.882
269.89
269.87
269.866
269.892
269.942
270.002
270.032
270.039
270.038
270.039
270.055
270.088
270.123
270.149
270.169
270.179
270.198
270.235
270.287
270.366
270.5
270.731
271.144
271.728
272.281
272.624
272.779
272.849
272.881
272.905
272.926
272.94
272.953
272.952
272.941
272.916
272.877
272.824
272.762
272.695
272.626
272.558
272.494
272.43
272.365
272.296
272.221
272.138
272.046
271.945
271.836
271.718
271.591
271.458
271.324
271.206
271.11
271.029
270.94
270.878
270.385
270.389
270.406
270.418
270.415
270.417
270.414
270.408
270.386
270.347
270.312
270.297
270.292
270.299
270.308
270.294
270.27
270.248
270.248
270.263
270.294
270.341
270.381
270.408
270.428
270.451
270.488
270.562
270.7
270.974
271.466
272.089
272.601
272.867
272.975
273.007
273.018
273.027
273.037
273.043
273.04
273.024
272.995
272.957
272.912
272.862
272.805
272.74
272.667
272.59
272.513
272.439
272.368
272.295
272.218
272.134
272.042
271.942
271.836
271.726
271.616
271.501
271.39
271.277
271.163
271.057
270.952
270.885
271.172
271.141
271.107
271.061
271.018
270.978
270.935
270.909
270.88
270.845
270.802
270.753
270.706
270.668
270.639
270.596
270.557
270.525
270.512
270.511
270.518
270.543
270.567
270.588
270.606
270.623
270.652
270.726
270.899
271.242
271.821
272.452
272.89
273.073
273.132
273.141
273.146
273.151
273.153
273.151
273.137
273.106
273.062
273.014
272.965
272.914
272.855
272.784
272.702
272.612
272.519
272.431
272.351
272.273
272.194
272.109
272.017
271.919
271.82
271.725
271.632
271.54
271.437
271.324
271.205
271.084
270.956
270.863
271.423
271.392
271.356
271.306
271.248
271.177
271.133
271.12
271.094
271.052
270.996
270.924
270.861
270.809
270.774
270.729
270.683
270.639
270.604
270.588
270.583
270.596
270.624
270.65
270.664
270.676
270.706
270.791
271.02
271.463
272.112
272.714
273.042
273.163
273.191
273.186
273.187
273.191
273.191
273.184
273.161
273.126
273.082
273.035
272.985
272.93
272.868
272.793
272.705
272.612
272.518
272.428
272.343
272.261
272.178
272.091
271.998
271.903
271.807
271.711
271.618
271.527
271.432
271.328
271.21
271.078
270.941
270.817
271.413
271.28
271.154
271.11
271.08
271.061
271.062
271.05
271.002
270.942
270.891
270.852
270.827
270.813
270.788
270.743
270.686
270.623
270.579
270.569
270.569
270.582
270.61
270.627
270.636
270.648
270.685
270.795
271.078
271.59
272.255
272.804
273.054
273.141
273.158
273.156
273.16
273.167
273.166
273.159
273.139
273.106
273.062
273.01
272.952
272.89
272.826
272.753
272.668
272.574
272.476
272.378
272.282
272.192
272.107
272.022
271.937
271.851
271.759
271.662
271.56
271.458
271.358
271.254
271.142
271.017
270.896
270.765
270.777
270.642
270.508
270.465
270.499
270.588
270.664
270.658
270.586
270.487
270.44
270.446
270.501
270.575
270.597
270.584
270.54
270.478
270.432
270.423
270.433
270.458
270.478
270.476
270.475
270.485
270.537
270.69
271.033
271.609
272.267
272.734
272.937
273.017
273.029
273.028
273.031
273.038
273.042
273.039
273.027
273
272.958
272.903
272.841
272.781
272.72
272.65
272.564
272.466
272.359
272.249
272.145
272.052
271.969
271.891
271.813
271.731
271.638
271.534
271.421
271.306
271.198
271.097
271.005
270.914
270.825
270.689
269.754
269.701
269.658
269.67
269.816
270.026
270.114
270.095
269.995
269.885
269.863
269.894
270
270.113
270.169
270.172
270.148
270.111
270.096
270.102
270.129
270.174
270.184
270.176
270.17
270.187
270.262
270.47
270.897
271.552
272.19
272.555
272.706
272.78
272.806
272.807
272.809
272.81
272.811
272.815
272.811
272.794
272.763
272.717
272.659
272.592
272.528
272.46
272.376
272.275
272.161
272.043
271.931
271.835
271.755
271.684
271.614
271.536
271.444
271.337
271.219
271.099
270.989
270.891
270.806
270.728
270.662
270.53
269.066
269.117
269.146
269.264
269.465
269.634
269.639
269.584
269.502
269.444
269.446
269.496
269.597
269.688
269.733
269.739
269.73
269.724
269.733
269.753
269.774
269.8
269.801
269.793
269.793
269.82
269.927
270.198
270.723
271.44
272.035
272.324
272.44
272.508
272.544
272.546
272.546
272.541
272.531
272.528
272.521
272.506
272.48
272.444
272.398
272.341
272.277
272.207
272.125
272.026
271.912
271.79
271.671
271.573
271.497
271.436
271.378
271.314
271.234
271.136
271.015
270.879
270.753
270.652
270.57
270.497
270.441
270.313
268.914
268.993
269.07
269.268
269.42
269.403
269.325
269.251
269.247
269.249
269.267
269.312
269.359
269.4
269.422
269.444
269.478
269.511
269.538
269.557
269.557
269.552
269.542
269.537
269.541
269.579
269.716
270.046
270.645
271.366
271.908
272.118
272.21
272.277
272.321
272.322
272.321
272.306
272.284
272.269
272.257
272.238
272.212
272.179
272.14
272.092
272.032
271.963
271.881
271.783
271.668
271.542
271.417
271.312
271.235
271.176
271.124
271.068
271.004
270.922
270.821
270.701
270.573
270.457
270.364
270.283
270.221
270.107
269.495
269.126
269.255
269.444
269.444
269.294
269.169
269.16
269.197
269.247
269.272
269.287
269.285
269.285
269.293
269.327
269.387
269.436
269.459
269.465
269.451
269.431
269.406
269.405
269.411
269.466
269.643
270.041
270.693
271.401
271.867
272.02
272.09
272.147
272.188
272.19
272.189
272.174
272.148
272.124
272.107
272.084
272.054
272.016
271.968
271.912
271.85
271.78
271.697
271.597
271.483
271.36
271.241
271.133
271.046
270.982
270.927
270.874
270.816
270.747
270.66
270.559
270.447
270.328
270.214
270.115
270.037
269.934
268.836
269.244
269.571
269.59
269.421
269.171
269.142
269.19
269.268
269.316
269.325
269.325
269.297
269.279
269.284
269.321
269.391
269.447
269.468
269.471
269.45
269.406
269.366
269.369
269.376
269.454
269.673
270.134
270.837
271.524
271.903
272.017
272.066
272.109
272.136
272.136
272.131
272.115
272.087
272.052
272.02
271.989
271.952
271.909
271.86
271.806
271.744
271.671
271.587
271.491
271.385
271.274
271.165
271.059
270.958
270.876
270.813
270.754
270.695
270.632
270.56
270.475
270.378
270.267
270.143
270.012
269.903
269.795
260.206
269.724
269.706
269.55
269.31
269.205
269.227
269.291
269.353
269.408
269.415
269.402
269.356
269.336
269.339
269.371
269.431
269.476
269.493
269.49
269.473
269.426
269.378
269.378
269.398
269.504
269.782
270.328
271.074
271.718
271.996
272.061
272.088
272.119
272.141
272.145
272.136
272.116
272.081
272.028
271.982
271.946
271.907
271.861
271.812
271.753
271.686
271.61
271.526
271.436
271.338
271.235
271.133
271.032
270.928
270.828
270.747
270.682
270.625
270.568
270.506
270.43
270.339
270.233
270.114
269.975
269.834
269.713
219.354
262.153
269.348
269.521
269.509
269.43
269.379
269.373
269.385
269.474
269.499
269.495
269.459
269.451
269.46
269.485
269.523
269.548
269.543
269.525
269.489
269.436
269.405
269.415
269.466
269.611
269.956
270.585
271.354
271.934
272.114
272.148
272.155
272.166
272.178
272.179
272.167
272.14
272.095
272.041
271.994
271.95
271.903
271.85
271.787
271.716
271.637
271.551
271.466
271.387
271.308
271.223
271.129
271.031
270.929
270.824
270.727
270.647
270.583
270.526
270.469
270.397
270.306
270.2
270.085
269.954
269.808
269.68
182.668
220.637
260.822
269.703
269.907
269.522
269.414
269.339
269.386
269.524
269.561
269.562
269.547
269.564
269.585
269.604
269.614
269.616
269.6
269.563
269.522
269.473
269.457
269.477
269.552
269.743
270.168
270.874
271.636
272.118
272.223
272.239
272.234
272.234
272.238
272.235
272.223
272.199
272.154
272.097
272.047
271.996
271.94
271.876
271.8
271.718
271.629
271.536
271.445
271.366
271.293
271.22
271.14
271.048
270.949
270.847
270.741
270.641
270.558
270.489
270.427
270.364
270.283
270.178
270.06
269.931
269.791
269.673
180.01
182.992
218.574
260.035
268.198
269.263
269.325
269.327
269.451
269.602
269.592
269.57
269.583
269.619
269.633
269.635
269.64
269.652
269.636
269.584
269.543
269.498
269.501
269.532
269.627
269.874
270.387
271.162
271.89
272.234
272.295
272.308
272.3
272.297
272.297
272.294
272.283
272.26
272.22
272.166
272.116
272.059
271.995
271.921
271.832
271.738
271.642
271.546
271.451
271.366
271.295
271.226
271.159
271.081
270.986
270.884
270.776
270.663
270.555
270.46
270.377
270.3
270.223
270.134
270.026
269.909
269.778
269.669
180
180.012
182.36
218.159
259.033
269.915
269.907
269.488
269.49
269.63
269.594
269.57
269.618
269.611
269.598
269.603
269.622
269.651
269.643
269.599
269.551
269.511
269.523
269.569
269.689
269.995
270.599
271.419
272.073
272.289
272.331
272.342
272.344
272.348
272.346
272.343
272.333
272.307
272.264
272.213
272.162
272.104
272.038
271.958
271.864
271.763
271.663
271.565
271.472
271.384
271.31
271.245
271.18
271.111
271.025
270.925
270.816
270.696
270.568
270.448
270.341
270.244
270.149
270.056
269.963
269.863
269.75
269.665
180
180
180.008
182.459
215.05
257.757
267.664
268.895
269.32
269.612
269.574
269.629
269.678
269.622
269.57
269.571
269.605
269.643
269.635
269.602
269.55
269.507
269.528
269.586
269.737
270.116
270.81
271.638
272.179
272.308
272.34
272.356
272.373
272.386
272.384
272.376
272.359
272.325
272.279
272.225
272.174
272.117
272.051
271.969
271.874
271.773
271.674
271.583
271.497
271.41
271.332
271.266
271.198
271.127
271.046
270.945
270.836
270.714
270.578
270.443
270.321
270.206
270.099
269.992
269.894
269.807
269.714
269.648
180
180
180
180.009
181.729
214.326
256.902
267.618
269.498
269.707
269.572
269.745
269.755
269.66
269.574
269.578
269.614
269.635
269.612
269.578
269.53
269.498
269.523
269.596
269.792
270.256
271.027
271.816
272.244
272.314
272.34
272.363
272.392
272.408
272.405
272.392
272.365
272.323
272.273
272.218
272.161
272.102
272.033
271.953
271.864
271.768
271.674
271.589
271.508
271.426
271.345
271.273
271.2
271.123
271.039
270.94
270.831
270.711
270.577
270.441
270.311
270.188
270.07
269.958
269.85
269.758
269.671
269.621
180
180
180
180
180.005
181.727
209.963
253.458
269.659
269.916
269.3
269.834
269.917
269.711
269.605
269.611
269.611
269.587
269.548
269.53
269.521
269.51
269.541
269.633
269.881
270.434
271.26
271.987
272.293
272.328
272.351
272.382
272.411
272.418
272.413
272.396
272.361
272.305
272.248
272.19
272.13
272.069
272.005
271.93
271.845
271.754
271.66
271.576
271.5
271.424
271.344
271.263
271.182
271.096
271.005
270.905
270.797
270.684
270.565
270.443
270.316
270.183
270.047
269.924
269.816
269.72
269.628
269.58
180
180
180
180
180
180.005
181.007
207.375
254.612
266.454
268.786
270.439
269.935
269.523
269.577
269.566
269.541
269.486
269.471
269.488
269.518
269.545
269.584
269.697
270.008
270.657
271.513
272.16
272.343
272.354
272.375
272.405
272.423
272.421
272.412
272.388
272.343
272.273
272.208
272.152
272.091
272.032
271.972
271.901
271.819
271.728
271.632
271.546
271.469
271.395
271.311
271.222
271.134
271.043
270.946
270.845
270.742
270.637
270.529
270.416
270.3
270.176
270.043
269.904
269.78
269.682
269.587
269.53
180
180
180
180
180
180
180.002
180.889
204.369
249.318
268.368
271.085
269.753
269.11
269.572
269.549
269.445
269.409
269.43
269.497
269.545
269.585
269.641
269.791
270.183
270.922
271.761
272.296
272.367
272.372
272.399
272.414
272.418
272.411
272.394
272.364
272.314
272.238
272.167
272.107
272.046
271.987
271.93
271.86
271.781
271.691
271.598
271.508
271.422
271.336
271.254
271.165
271.07
270.971
270.872
270.771
270.671
270.572
270.473
270.372
270.266
270.153
270.032
269.898
269.758
269.645
269.548
269.479
180
180
180
180
180
180
180
180.002
180.574
200.785
248.297
267.485
268.262
269.495
269.713
269.516
269.369
269.347
269.406
269.509
269.558
269.593
269.658
269.859
270.354
271.167
271.941
272.327
272.345
272.363
272.407
272.418
272.403
272.381
272.35
272.315
272.265
272.192
272.122
272.057
271.993
271.931
271.875
271.811
271.741
271.663
271.578
271.48
271.378
271.286
271.193
271.097
270.997
270.891
270.787
270.688
270.591
270.496
270.406
270.316
270.219
270.114
270.003
269.882
269.748
269.62
269.513
269.434
180
180
180
180
180
180
180
180
180.001
180.413
197.795
242.702
265.934
270.81
270.172
269.385
269.316
269.269
269.334
269.452
269.53
269.559
269.632
269.905
270.518
271.367
272.011
272.246
272.281
272.323
272.383
272.409
272.383
272.332
272.287
272.249
272.214
272.159
272.092
272.01
271.929
271.865
271.812
271.76
271.708
271.648
271.571
271.472
271.367
271.26
271.149
271.04
270.932
270.819
270.706
270.605
270.512
270.424
270.342
270.262
270.174
270.078
269.975
269.864
269.737
269.603
269.485
269.395
180
180
180
180
180
180
180
180
180
180.001
180.287
193.11
237.924
266.782
268.885
269.103
269.289
269.285
269.304
269.361
269.437
269.484
269.609
269.98
270.699
271.539
272.001
272.111
272.185
272.266
272.351
272.386
272.358
272.285
272.229
272.194
272.174
272.14
272.081
271.991
271.892
271.81
271.749
271.708
271.676
271.633
271.557
271.458
271.354
271.244
271.125
271.005
270.886
270.765
270.645
270.54
270.454
270.374
270.296
270.221
270.14
270.049
269.953
269.848
269.729
269.598
269.474
269.374
180
180
180
180
180
180
180
180
180
180
180
180.14
190.278
233.567
263.615
269.63
269.483
269.366
269.385
269.35
269.352
269.432
269.65
270.125
270.907
271.679
271.971
272.021
272.08
272.182
272.298
272.347
272.336
272.258
272.198
272.168
272.151
272.13
272.087
272.004
271.897
271.799
271.731
271.691
271.666
271.624
271.541
271.443
271.34
271.227
271.106
270.983
270.862
270.739
270.613
270.508
270.426
270.348
270.269
270.192
270.113
270.028
269.939
269.845
269.739
269.615
269.487
269.379
180
180
180
180
180
180
180
180
180
180
180
180
180.095
186.869
227.753
262.145
269.721
269.664
269.496
269.236
269.283
269.475
269.793
270.327
271.09
271.755
271.978
272.015
272.078
272.192
272.301
272.317
272.299
272.244
272.173
272.143
272.141
272.144
272.114
272.039
271.925
271.825
271.759
271.716
271.679
271.624
271.526
271.405
271.287
271.174
271.074
270.967
270.856
270.735
270.603
270.495
270.419
270.348
270.277
270.201
270.117
270.029
269.944
269.861
269.775
269.667
269.534
269.423
180
180
180
180
180
180
180
180
180
180
180
180
180
180.042
184.894
220.634
258.937
268.738
269.235
268.851
269.271
269.653
269.988
270.47
271.201
271.831
271.999
272.084
272.176
272.29
272.35
272.333
272.294
272.233
272.172
272.151
272.156
272.164
272.151
272.097
271.972
271.867
271.81
271.774
271.731
271.661
271.551
271.404
271.253
271.127
271.028
270.949
270.858
270.759
270.633
270.51
270.429
270.361
270.301
270.242
270.167
270.089
270.018
269.947
269.871
269.773
269.636
269.539
180
180
180
180
180
180
180
180
180
180
180
180
180
180
180.025
182.602
215.004
257.101
268.186
268.752
269.787
270.118
270.106
270.574
271.412
271.923
272.091
272.22
272.346
272.442
272.43
272.377
272.324
272.262
272.225
272.221
272.227
272.219
272.187
272.141
272.038
271.935
271.888
271.854
271.811
271.736
271.62
271.469
271.299
271.159
271.068
271.006
270.938
270.857
270.746
270.614
270.514
270.444
270.38
270.328
270.274
270.214
270.162
270.109
270.041
269.952
269.811
269.737
180
180
180
180
180
180
180
180
180
180
180
180
180
180
180
180.009
181.733
207.885
250.58
267.527
271.063
270.332
269.781
270.683
271.608
272
272.204
272.399
272.553
272.566
272.514
272.429
272.375
272.328
272.331
272.342
272.339
272.319
272.268
272.194
272.071
271.979
271.922
271.875
271.835
271.783
271.702
271.588
271.442
271.305
271.236
271.194
271.142
271.072
270.974
270.845
270.722
270.64
270.573
270.52
270.468
270.423
270.386
270.345
270.284
270.198
270.057
270.002
180
180
180
180
180
180
180
180
180
180
180
180
180
180
180
180
180.005
180.783
200.756
244.34
268.503
268.801
269.87
270.877
271.582
271.978
272.317
272.645
272.713
272.676
272.589
272.507
272.451
272.45
272.478
272.493
272.474
272.443
272.391
272.299
272.184
272.11
272.047
271.968
271.891
271.84
271.786
271.717
271.632
271.538
271.486
271.456
271.416
271.359
271.274
271.153
271.018
270.92
270.855
270.802
270.754
270.715
270.679
270.633
270.56
270.461
270.32
270.268
180
180
180
180
180
180
180
180
180
180
180
180
180
180
180
180
180
180.001
180.386
194.145
238.282
263.752
270.85
271.577
271.624
272.059
272.573
272.904
272.881
272.805
272.709
272.672
272.634
272.645
272.684
272.672
272.616
272.576
272.53
272.446
272.372
272.323
272.267
272.181
272.073
272
271.949
271.891
271.83
271.77
271.735
271.719
271.695
271.653
271.58
271.466
271.325
271.209
271.134
271.078
271.033
270.998
270.96
270.905
270.808
270.686
270.552
270.491
180
180
180
180
180
180
180
180
180
180
180
180
180
180
180
180
180
180
180
180.169
189.065
227.729
264.622
270.424
271.31
272.38
272.881
272.969
272.972
272.974
272.955
272.961
272.955
272.964
272.965
272.908
272.8
272.734
272.671
272.615
272.586
272.562
272.526
272.46
272.356
272.255
272.189
272.124
272.056
271.994
271.953
271.938
271.918
271.876
271.8
271.689
271.553
271.428
271.346
271.296
271.259
271.222
271.167
271.08
270.95
270.81
270.687
270.616
180
180
180
180
180
180
180
180
180
180
180
180
180
180
180
180
180
180
180
180
180.067
184.821
221.957
260.064
271.425
273.318
272.99
272.988
273.185
273.265
273.272
273.237
273.237
273.257
273.253
273.172
273.032
272.922
272.844
272.816
272.809
272.795
272.768
272.719
272.634
272.526
272.44
272.355
272.268
272.187
272.121
272.076
272.033
271.974
271.894
271.794
271.679
271.569
271.492
271.438
271.389
271.327
271.244
271.127
270.984
270.858
270.755
270.68
180
180
180
180
180
180
180
180
180
180
180
180
180
180
180
180
180
180
180
180
180
180.024
182.681
214.277
260.517
271.932
272.912
273.52
273.789
273.728
273.59
273.432
273.415
273.442
273.434
273.383
273.272
273.16
273.084
273.056
273.042
273.021
272.986
272.935
272.858
272.749
272.641
272.533
272.422
272.315
272.219
272.135
272.062
271.991
271.911
271.818
271.714
271.614
271.536
271.47
271.404
271.322
271.224
271.105
270.978
270.871
270.777
270.705
180
180
180
180
180
180
180
180
180
180
180
180
180
180
180
180
180
180
180
180
180
180
180.009
181.475
209.759
255.895
273.328
274.602
274.442
274.109
273.962
273.818
273.739
273.644
273.576
273.557
273.499
273.426
273.337
273.282
273.247
273.222
273.183
273.122
273.034
272.905
272.756
272.621
272.494
272.372
272.26
272.157
272.065
271.985
271.902
271.806
271.697
271.593
271.51
271.437
271.361
271.27
271.168
271.058
270.946
270.848
270.768
270.698
180
180
180
180
180
180
180
180
180
180
180
180
180
180
180
180
180
180
180
180
180
180
180
180.004
180.891
204.171
255.022
272.162
273.964
274.09
274.32
274.398
274.139
273.885
273.784
273.767
273.737
273.66
273.543
273.439
273.376
273.35
273.333
273.27
273.162
272.999
272.799
272.634
272.503
272.383
272.272
272.171
272.071
271.978
271.889
271.787
271.672
271.558
271.462
271.379
271.295
271.202
271.097
270.989
270.881
270.794
270.727
270.656
180
180
180
180
180
180
180
180
180
180
180
180
180
180
180
180
180
180
180
180
180
180
180
180
180.002
180.521
200.76
248.487
273.252
274.644
274.907
274.725
274.325
274.05
273.936
273.909
273.872
273.779
273.635
273.505
273.429
273.394
273.394
273.342
273.221
273.03
272.8
272.629
272.496
272.391
272.295
272.194
272.092
271.986
271.877
271.762
271.64
271.519
271.41
271.316
271.223
271.126
271.022
270.918
270.81
270.722
270.656
270.58
180
180
180
180
180
180
180
180
180
180
180
180
180
180
180
180
180
180
180
180
180
180
180
180
180
180.001
180.361
195.571
247.293
269.419
273.721
274.115
273.724
273.792
273.835
273.895
273.865
273.758
273.601
273.477
273.413
273.379
273.367
273.313
273.182
272.984
272.77
272.624
272.506
272.418
272.33
272.225
272.112
271.986
271.854
271.725
271.6
271.48
271.362
271.254
271.154
271.064
270.966
270.868
270.763
270.663
270.581
270.493
180
180
180
180
180
180
180
180
180
180
180
180
180
180
180
180
180
180
180
180
180
180
180
180
180
180
180
180.186
193.186
237.349
271.206
274.215
273.806
273.877
273.881
273.902
273.843
273.725
273.565
273.447
273.382
273.336
273.291
273.199
273.043
272.853
272.7
272.591
272.504
272.44
272.359
272.25
272.122
271.962
271.803
271.687
271.579
271.457
271.327
271.202
271.093
271.001
270.912
270.821
270.723
270.62
270.518
270.409
180
180
180
180
180
180
180
180
180
180
180
180
180
180
180
180
180
180
180
180
180
180
180
180
180
180
180
180
180.128
188.101
234.724
266.156
273.639
274.534
274.156
273.976
273.864
273.697
273.564
273.451
273.363
273.271
273.17
273.034
272.856
272.69
272.583
272.517
272.476
272.429
272.337
272.215
272.065
271.89
271.76
271.651
271.546
271.427
271.294
271.158
271.035
270.934
270.845
270.764
270.672
270.571
270.463
270.335
180
180
180
180
180
180
180
180
180
180
180
180
180
180
180
180
180
180
180
180
180
180
180
180
180
180
180
180
180
180.056
185.901
224.707
264.632
274.137
273.721
273.819
273.779
273.545
273.46
273.385
273.298
273.204
273.063
272.879
272.697
272.573
272.5
272.461
272.433
272.364
272.256
272.113
271.937
271.782
271.674
271.577
271.489
271.385
271.257
271.118
270.978
270.868
270.773
270.693
270.61
270.508
270.399
270.258
180
180
180
180
180
180
180
180
180
180
180
180
180
180
180
180
180
180
180
180
180
180
180
180
180
180
180
180
180
180
180.03
183.256
216.575
261.809
271.831
273.596
273.644
273.471
273.333
273.249
273.211
273.131
272.971
272.767
272.614
272.534
272.48
272.446
272.383
272.28
272.145
271.964
271.776
271.648
271.558
271.486
271.426
271.336
271.212
271.069
270.919
270.803
270.706
270.618
270.533
270.429
270.321
270.173
180
180
180
180
180
180
180
180
180
180
180
180
180
180
180
180
180
180
180
180
180
180
180
180
180
180
180
180
180
180
180
180.012
181.638
210.751
254.845
273.262
273.9
273.439
273.204
273.117
273.121
273.043
272.894
272.716
272.586
272.513
272.46
272.411
272.307
272.182
272.026
271.826
271.651
271.549
271.472
271.42
271.371
271.281
271.153
271.002
270.857
270.743
270.645
270.549
270.454
270.345
270.234
270.081
180
180
180
180
180
180
180
180
180
180
180
180
180
180
180
180
180
180
180
180
180
180
180
180
180
180
180
180
180
180
180
180
180.004
180.918
202.071
249.633
271.49
273.026
273.02
273.089
273.144
273.062
272.929
272.711
272.565
272.476
272.406
272.321
272.187
272.046
271.895
271.726
271.595
271.503
271.426
271.372
271.292
271.177
271.041
270.892
270.766
270.663
270.566
270.471
270.371
270.257
270.141
269.987
180
180
180
180
180
180
180
180
180
180
180
180
180
180
180
180
180
180
180
180
180
180
180
180
180
180
180
180
180
180
180
180
180
180.002
180.405
195.11
242.637
267.383
272.743
273.429
273.416
273.236
272.933
272.76
272.616
272.459
272.322
272.178
272.039
271.903
271.772
271.664
271.577
271.484
271.387
271.291
271.173
271.023
270.879
270.768
270.663
270.565
270.468
270.363
270.251
270.133
270.019
269.882
180
180
180
180
180
180
180
180
180
180
180
180
180
180
180
180
180
180
180
180
180
180
180
180
180
180
180
180
180
180
180
180
180
180
180
180.183
190.035
229.924
265.195
273.299
273.345
273.061
272.788
272.604
272.499
272.378
272.204
272.076
271.933
271.796
271.692
271.621
271.55
271.452
271.329
271.18
271.015
270.852
270.728
270.636
270.555
270.462
270.353
270.232
270.098
269.971
269.868
269.751
180
180
180
180
180
180
180
180
180
180
180
180
180
180
180
180
180
180
180
180
180
180
180
180
180
180
180
180
180
180
180
180
180
180
180
180
180.076
184.818
219.778
263.033
271.26
272.14
272.331
272.327
272.258
272.2
272.076
271.985
271.869
271.745
271.655
271.592
271.52
271.414
271.279
271.091
270.869
270.701
270.596
270.522
270.456
270.354
270.233
270.088
269.935
269.808
269.709
269.607
180
180
180
180
180
180
180
180
180
180
180
180
180
180
180
180
180
180
180
180
180
180
180
180
180
180
180
180
180
180
180
180
180
180
180
180
180
180.022
182.218
212.147
253.048
271.043
273.128
272.719
272.342
272.098
272.034
271.899
271.743
271.643
271.565
271.504
271.443
271.333
271.199
271.014
270.773
270.6
270.494
270.422
270.367
270.266
270.137
269.975
269.8
269.664
269.559
269.451
180
180
180
180
180
180
180
180
180
180
180
180
180
180
180
180
180
180
180
180
180
180
180
180
180
180
180
180
180
180
180
180
180
180
180
180
180
180
180.007
180.994
199.843
243.241
268.469
272.144
272.302
272.28
272.135
271.95
271.653
271.46
271.362
271.28
271.228
271.162
271.044
270.886
270.69
270.532
270.418
270.325
270.25
270.149
270.025
269.874
269.705
269.562
269.447
269.315
180
180
180
180
180
180
180
180
180
180
180
180
180
180
180
180
180
180
180
180
180
180
180
180
180
180
180
180
180
180
180
180
180
180
180
180
180
180
180
180.002
180.3
190.625
233.34
262.907
271.667
272.433
272.363
271.895
271.539
271.37
271.228
271.095
270.978
270.882
270.793
270.69
270.562
270.436
270.318
270.207
270.1
269.984
269.871
269.75
269.618
269.486
269.364
269.213
180
180
180
180
180
180
180
180
180
180
180
180
180
180
180
180
180
180
180
180
180
180
180
180
180
180
180
180
180
180
180
180
180
180
180
180
180
180
180
180
180
180.091
185.752
218.031
258.263
270.573
271.491
271.443
271.568
271.503
271.361
271.142
270.882
270.712
270.591
270.513
270.444
270.338
270.211
270.074
269.934
269.805
269.697
269.605
269.511
269.404
269.279
269.127
180
180
180
180
180
180
180
180
180
180
180
180
180
180
180
180
180
180
180
180
180
180
180
180
180
180
180
180
180
180
180
180
180
180
180
180
180
180
180
180
180
180
180.03
181.875
205.66
248.843
267.432
271.982
271.962
271.637
271.347
271.08
270.87
270.707
270.558
270.435
270.345
270.241
270.105
269.955
269.791
269.655
269.561
269.47
269.384
269.296
269.172
269.027
180
180
180
180
180
180
180
180
180
180
180
180
180
180
180
180
180
180
180
180
180
180
180
180
180
180
180
180
180
180
180
180
180
180
180
180
180
180
180
180
180
180
180
180.005
180.577
195.707
233.8
265.747
269.954
270.561
270.617
270.777
270.737
270.64
270.501
270.378
270.27
270.149
270.004
269.847
269.681
269.557
269.466
269.368
269.278
269.192
269.069
268.929
180
180
180
180
180
180
180
180
180
180
180
180
180
180
180
180
180
180
180
180
180
180
180
180
180
180
180
180
180
180
180
180
180
180
180
180
180
180
180
180
180
180
180
180
180.001
180.186
186.198
220.847
256.013
269.664
271.528
271.246
270.681
270.498
270.363
270.25
270.139
270.011
269.873
269.732
269.59
269.485
269.391
269.288
269.191
269.089
268.963
268.827
180
180
180
180
180
180
180
180
180
180
180
180
180
180
180
180
180
180
180
180
180
180
180
180
180
180
180
180
180
180
180
180
180
180
180
180
180
180
180
180
180
180
180
180
180
180
180.036
182.159
204.91
244.932
267.461
269.755
269.964
270.217
270.251
270.146
269.991
269.841
269.726
269.613
269.484
269.386
269.281
269.177
269.087
268.969
268.848
268.711
180
180
180
180
180
180
180
180
180
180
180
180
180
180
180
180
180
180
180
180
180
180
180
180
180
180
180
180
180
180
180
180
180
180
180
180
180
180
180
180
180
180
180
180
180
180
180
180.006
180.534
192.122
231.243
259.723
270.084
270.969
270.688
270.198
269.859
269.746
269.616
269.529
269.402
269.282
269.163
269.056
268.967
268.842
268.722
268.578
180
180
180
180
180
180
180
180
180
180
180
180
180
180
180
180
180
180
180
180
180
180
180
180
180
180
180
180
180
180
180
180
180
180
180
180
180
180
180
180
180
180
180
180
180
180
180
180
180.001
180.118
184.958
212.728
251.634
268.05
269.643
269.621
269.617
269.658
269.623
269.5
269.278
269.125
269.001
268.897
268.81
268.695
268.579
268.436
180
180
180
180
180
180
180
180
180
180
180
180
180
180
180
180
180
180
180
180
180
180
180
180
180
180
180
180
180
180
180
180
180
180
180
180
180
180
180
180
180
180
180
180
180
180
180
180
180
180
180.023
181.183
198.043
238.419
261.574
269.03
270.011
269.951
269.686
269.329
269.134
268.977
268.845
268.748
268.67
268.58
268.464
268.316
180
180
180
180
180
180
180
180
180
180
180
180
180
180
180
180
180
180
180
180
180
180
180
180
180
180
180
180
180
180
180
180
180
180
180
180
180
180
180
180
180
180
180
180
180
180
180
180
180
180
180
180.002
180.26
187.875
217.518
253.454
267.359
269.356
269.27
269.322
269.181
269.017
268.814
268.673
268.564
268.472
268.351
268.19
180
180
180
180
180
180
180
180
180
180
180
180
180
180
180
180
180
180
180
180
180
180
180
180
180
180
180
180
180
180
180
180
180
180
180
180
180
180
180
180
180
180
180
180
180
180
180
180
180
180
180
180
180
180.049
181.789
200.577
240.081
261.216
268.984
269.695
269.535
268.976
268.707
268.533
268.411
268.304
268.181
268.027
180
180
180
180
180
180
180
180
180
180
180
180
180
180
180
180
180
180
180
180
180
180
180
180
180
180
180
180
180
180
180
180
180
180
180
180
180
180
180
180
180
180
180
180
180
180
180
180
180
180
180
180
180
180
180.004
180.343
189.171
218.062
254.73
266.013
268.291
268.309
268.435
268.317
268.231
268.153
268.049
267.902
180
180
180
180
180
180
180
180
180
180
180
180
180
180
180
180
180
180
180
180
180
180
180
180
180
180
180
180
180
180
180
180
180
180
180
180
180
180
180
180
180
180
180
180
180
180
180
180
180
180
180
180
180
180
180
180
180.066
181.903
202.13
237.119
261.83
268.635
268.606
268.287
268.176
268.184
268.051
267.885
180
180
180
180
180
180
180
180
180
180
180
180
180
180
180
180
180
180
180
180
180
180
180
180
180
180
180
180
180
180
180
180
180
180
180
180
180
180
180
180
180
180
180
180
180
180
180
180
180
180
180
180
180
180
180
180
180
180.005