/*--------------------------------*- C++ -*----------------------------------*\
| =========                 |                                                 |
| \\      /  F ield         | OpenFOAM: The Open Source CFD Toolbox           |
|  \\    /   O peration     | Version:  2306                                  |
|   \\  /    A nd           | Website:  www.openfoam.com                      |
|    \\/     M anipulation  |                                                 |
\*---------------------------------------------------------------------------*/
FoamFile
{
    version     2.0;
    format      ascii;
    arch        "LSB;label=32;scalar=64";
    class       volVectorField;
    location    "6e-05";
    object      U;
}
// * * * * * * * * * * * * * * * * * * * * * * * * * * * * * * * * * * * * * //

dimensions      [0 1 -1 0 0 0 0];

internalField   nonuniform List<vector> 
9032
(
(365.668 155.281 0)
(365.788 155.208 0)
(365.754 155.16 0)
(365.624 155.195 0)
(365.587 155.252 0)
(365.572 155.313 0)
(365.54 155.346 0)
(365.429 155.287 0)
(365.317 155.197 0)
(365.182 155.053 0)
(365.09 154.986 0)
(365.108 154.988 0)
(365.164 154.998 0)
(365.243 155 0)
(365.254 154.983 0)
(365.242 154.959 0)
(365.218 154.917 0)
(365.19 154.885 0)
(365.175 154.871 0)
(365.172 154.871 0)
(365.155 154.878 0)
(365.088 154.882 0)
(364.962 154.882 0)
(364.823 154.91 0)
(364.734 154.917 0)
(364.663 154.879 0)
(364.602 154.832 0)
(364.447 154.775 0)
(364.106 154.68 0)
(363.407 154.509 0)
(362.254 154.23 0)
(360.613 153.744 0)
(358.953 153.057 0)
(357.761 152.363 0)
(357.195 151.887 0)
(356.94 151.61 0)
(356.822 151.458 0)
(356.76 151.427 0)
(356.708 151.425 0)
(356.685 151.424 0)
(356.683 151.421 0)
(356.716 151.414 0)
(356.768 151.404 0)
(356.838 151.413 0)
(356.926 151.437 0)
(357.022 151.477 0)
(357.127 151.533 0)
(357.251 151.603 0)
(357.424 151.681 0)
(357.627 151.758 0)
(357.848 151.826 0)
(358.071 151.899 0)
(358.289 151.977 0)
(358.508 152.052 0)
(358.736 152.128 0)
(358.977 152.211 0)
(359.231 152.298 0)
(359.492 152.388 0)
(359.755 152.484 0)
(360.001 152.592 0)
(360.221 152.715 0)
(360.424 152.856 0)
(360.625 153.005 0)
(360.861 153.168 0)
(361.147 153.328 0)
(361.444 153.483 0)
(361.764 153.622 0)
(362.117 153.723 0)
(365.382 155.341 0)
(365.428 155.275 0)
(365.409 155.07 0)
(365.366 155.01 0)
(365.339 155.043 0)
(365.281 155.172 0)
(365.164 155.324 0)
(365.044 155.372 0)
(364.951 155.333 0)
(364.852 155.201 0)
(364.795 155.087 0)
(364.811 155.049 0)
(364.874 155.011 0)
(365.011 154.984 0)
(365.066 155.011 0)
(365.056 155.032 0)
(365.004 155.022 0)
(364.952 154.958 0)
(364.952 154.878 0)
(364.983 154.809 0)
(365.018 154.738 0)
(365.01 154.702 0)
(364.941 154.72 0)
(364.811 154.756 0)
(364.681 154.801 0)
(364.577 154.812 0)
(364.474 154.773 0)
(364.32 154.689 0)
(363.974 154.549 0)
(363.256 154.322 0)
(362.04 153.849 0)
(360.369 153.124 0)
(358.807 152.432 0)
(357.826 151.964 0)
(357.331 151.661 0)
(357.066 151.495 0)
(356.925 151.418 0)
(356.835 151.417 0)
(356.764 151.443 0)
(356.711 151.454 0)
(356.69 151.469 0)
(356.696 151.48 0)
(356.731 151.487 0)
(356.793 151.504 0)
(356.878 151.536 0)
(356.984 151.581 0)
(357.111 151.638 0)
(357.257 151.714 0)
(357.423 151.801 0)
(357.614 151.884 0)
(357.822 151.96 0)
(358.035 152.035 0)
(358.25 152.108 0)
(358.47 152.181 0)
(358.699 152.258 0)
(358.937 152.34 0)
(359.185 152.425 0)
(359.44 152.505 0)
(359.701 152.576 0)
(359.959 152.652 0)
(360.205 152.753 0)
(360.433 152.889 0)
(360.65 153.065 0)
(360.893 153.265 0)
(361.183 153.451 0)
(361.479 153.633 0)
(361.803 153.817 0)
(362.086 153.934 0)
(364.322 155.304 0)
(364.476 155.083 0)
(364.617 154.766 0)
(364.698 154.684 0)
(364.667 154.694 0)
(364.632 154.714 0)
(364.616 154.73 0)
(364.583 154.738 0)
(364.551 154.703 0)
(364.457 154.688 0)
(364.352 154.772 0)
(364.322 154.873 0)
(364.353 154.961 0)
(364.463 154.979 0)
(364.575 154.936 0)
(364.613 154.908 0)
(364.603 154.85 0)
(364.551 154.811 0)
(364.532 154.811 0)
(364.532 154.817 0)
(364.567 154.81 0)
(364.611 154.784 0)
(364.584 154.75 0)
(364.503 154.713 0)
(364.404 154.693 0)
(364.307 154.675 0)
(364.19 154.637 0)
(363.997 154.57 0)
(363.583 154.434 0)
(362.767 154.151 0)
(361.349 153.588 0)
(359.583 152.817 0)
(358.159 152.214 0)
(357.454 151.839 0)
(357.115 151.664 0)
(356.933 151.589 0)
(356.837 151.546 0)
(356.774 151.53 0)
(356.718 151.531 0)
(356.665 151.524 0)
(356.632 151.525 0)
(356.624 151.526 0)
(356.648 151.529 0)
(356.706 151.545 0)
(356.8 151.581 0)
(356.928 151.625 0)
(357.081 151.674 0)
(357.255 151.728 0)
(357.44 151.791 0)
(357.631 151.861 0)
(357.83 151.93 0)
(358.045 151.993 0)
(358.27 152.054 0)
(358.503 152.119 0)
(358.74 152.192 0)
(358.978 152.271 0)
(359.218 152.352 0)
(359.461 152.434 0)
(359.709 152.518 0)
(359.967 152.618 0)
(360.233 152.75 0)
(360.493 152.919 0)
(360.745 153.12 0)
(360.99 153.334 0)
(361.243 153.533 0)
(361.523 153.701 0)
(361.864 153.827 0)
(362.123 153.86 0)
(363.339 154.829 0)
(363.723 154.57 0)
(363.973 154.267 0)
(364.018 154.215 0)
(363.932 154.231 0)
(363.826 154.339 0)
(363.849 154.393 0)
(363.956 154.36 0)
(363.985 154.338 0)
(363.974 154.34 0)
(363.908 154.423 0)
(363.863 154.537 0)
(363.889 154.618 0)
(363.977 154.673 0)
(364.085 154.666 0)
(364.127 154.657 0)
(364.122 154.658 0)
(364.064 154.699 0)
(364.028 154.744 0)
(364.02 154.772 0)
(364.053 154.772 0)
(364.119 154.717 0)
(364.14 154.611 0)
(364.116 154.54 0)
(364.063 154.501 0)
(363.99 154.475 0)
(363.882 154.422 0)
(363.655 154.331 0)
(363.105 154.182 0)
(362.133 153.822 0)
(360.549 153.162 0)
(358.787 152.428 0)
(357.579 151.881 0)
(357.053 151.587 0)
(356.826 151.455 0)
(356.702 151.416 0)
(356.631 151.428 0)
(356.576 151.456 0)
(356.526 151.475 0)
(356.48 151.502 0)
(356.453 151.517 0)
(356.448 151.53 0)
(356.474 151.55 0)
(356.541 151.587 0)
(356.657 151.636 0)
(356.804 151.693 0)
(356.975 151.749 0)
(357.16 151.796 0)
(357.351 151.834 0)
(357.545 151.88 0)
(357.745 151.939 0)
(357.957 152.01 0)
(358.185 152.087 0)
(358.423 152.166 0)
(358.663 152.255 0)
(358.901 152.35 0)
(359.138 152.44 0)
(359.383 152.53 0)
(359.644 152.631 0)
(359.925 152.74 0)
(360.215 152.862 0)
(360.506 153.005 0)
(360.793 153.175 0)
(361.054 153.349 0)
(361.306 153.52 0)
(361.551 153.673 0)
(361.831 153.796 0)
(362.043 153.831 0)
(363.129 154.295 0)
(363.439 154.223 0)
(363.567 154.165 0)
(363.549 154.162 0)
(363.496 154.155 0)
(363.522 154.123 0)
(363.612 154.117 0)
(363.717 154.157 0)
(363.767 154.186 0)
(363.757 154.214 0)
(363.708 154.279 0)
(363.671 154.351 0)
(363.707 154.406 0)
(363.774 154.45 0)
(363.872 154.484 0)
(363.91 154.503 0)
(363.905 154.531 0)
(363.852 154.559 0)
(363.796 154.575 0)
(363.774 154.574 0)
(363.777 154.55 0)
(363.807 154.504 0)
(363.838 154.454 0)
(363.841 154.411 0)
(363.822 154.365 0)
(363.773 154.33 0)
(363.645 154.304 0)
(363.363 154.252 0)
(362.722 154.083 0)
(361.551 153.601 0)
(359.785 152.862 0)
(358.073 152.2 0)
(357.105 151.745 0)
(356.749 151.51 0)
(356.538 151.436 0)
(356.431 151.433 0)
(356.37 151.454 0)
(356.319 151.468 0)
(356.28 151.466 0)
(356.258 151.448 0)
(356.251 151.435 0)
(356.258 151.446 0)
(356.294 151.489 0)
(356.375 151.551 0)
(356.501 151.609 0)
(356.662 151.655 0)
(356.852 151.681 0)
(357.051 151.702 0)
(357.251 151.733 0)
(357.448 151.786 0)
(357.649 151.864 0)
(357.858 151.961 0)
(358.079 152.063 0)
(358.312 152.163 0)
(358.551 152.263 0)
(358.792 152.365 0)
(359.037 152.468 0)
(359.296 152.583 0)
(359.57 152.708 0)
(359.854 152.84 0)
(360.157 152.971 0)
(360.473 153.085 0)
(360.785 153.197 0)
(361.09 153.316 0)
(361.364 153.429 0)
(361.603 153.535 0)
(361.852 153.631 0)
(362.026 153.678 0)
(363.558 153.68 0)
(363.645 153.946 0)
(363.372 154.172 0)
(363.232 154.157 0)
(363.288 154.085 0)
(363.455 154.014 0)
(363.622 154.053 0)
(363.728 154.144 0)
(363.687 154.19 0)
(363.62 154.194 0)
(363.576 154.188 0)
(363.594 154.18 0)
(363.669 154.182 0)
(363.78 154.225 0)
(363.871 154.301 0)
(363.894 154.352 0)
(363.861 154.409 0)
(363.766 154.479 0)
(363.669 154.535 0)
(363.637 154.547 0)
(363.623 154.535 0)
(363.643 154.491 0)
(363.694 154.431 0)
(363.717 154.368 0)
(363.711 154.322 0)
(363.657 154.303 0)
(363.517 154.273 0)
(363.184 154.187 0)
(362.405 153.944 0)
(360.951 153.427 0)
(359.022 152.686 0)
(357.454 152.08 0)
(356.743 151.668 0)
(356.48 151.509 0)
(356.306 151.449 0)
(356.222 151.438 0)
(356.169 151.447 0)
(356.126 151.455 0)
(356.094 151.454 0)
(356.083 151.451 0)
(356.089 151.455 0)
(356.121 151.477 0)
(356.186 151.516 0)
(356.284 151.559 0)
(356.407 151.6 0)
(356.56 151.634 0)
(356.745 151.662 0)
(356.946 151.692 0)
(357.15 151.737 0)
(357.355 151.801 0)
(357.563 151.879 0)
(357.774 151.964 0)
(357.988 152.054 0)
(358.213 152.149 0)
(358.449 152.252 0)
(358.693 152.365 0)
(358.953 152.498 0)
(359.229 152.64 0)
(359.507 152.794 0)
(359.792 152.947 0)
(360.083 153.08 0)
(360.385 153.189 0)
(360.701 153.264 0)
(361.016 153.315 0)
(361.312 153.362 0)
(361.58 153.444 0)
(361.847 153.544 0)
(361.981 153.654 0)
(364.088 153.825 0)
(363.668 154.161 0)
(363.144 154.148 0)
(363.034 154.153 0)
(363.314 154.271 0)
(363.522 154.332 0)
(363.644 154.447 0)
(363.613 154.522 0)
(363.471 154.502 0)
(363.334 154.438 0)
(363.291 154.368 0)
(363.367 154.316 0)
(363.532 154.278 0)
(363.733 154.273 0)
(363.845 154.289 0)
(363.865 154.314 0)
(363.828 154.334 0)
(363.743 154.367 0)
(363.638 154.423 0)
(363.583 154.457 0)
(363.565 154.451 0)
(363.564 154.421 0)
(363.585 154.384 0)
(363.601 154.331 0)
(363.595 154.31 0)
(363.53 154.305 0)
(363.355 154.275 0)
(362.897 154.166 0)
(361.929 153.816 0)
(360.248 153.238 0)
(358.311 152.485 0)
(356.983 151.954 0)
(356.437 151.705 0)
(356.202 151.6 0)
(356.068 151.535 0)
(355.994 151.489 0)
(355.951 151.477 0)
(355.919 151.474 0)
(355.906 151.466 0)
(355.922 151.463 0)
(355.96 151.474 0)
(356.025 151.492 0)
(356.115 151.517 0)
(356.217 151.556 0)
(356.332 151.6 0)
(356.479 151.643 0)
(356.665 151.686 0)
(356.871 151.728 0)
(357.079 151.788 0)
(357.289 151.866 0)
(357.498 151.953 0)
(357.704 152.047 0)
(357.911 152.145 0)
(358.134 152.242 0)
(358.376 152.338 0)
(358.63 152.444 0)
(358.904 152.571 0)
(359.191 152.701 0)
(359.479 152.836 0)
(359.764 152.967 0)
(360.039 153.085 0)
(360.315 153.175 0)
(360.605 153.243 0)
(360.908 153.294 0)
(361.225 153.337 0)
(361.54 153.393 0)
(361.852 153.476 0)
(361.999 153.597 0)
(364.237 154.621 0)
(363.447 154.5 0)
(363.058 154.313 0)
(363.328 154.247 0)
(363.802 154.382 0)
(364.03 154.452 0)
(364.052 154.563 0)
(363.872 154.647 0)
(363.593 154.63 0)
(363.374 154.519 0)
(363.361 154.447 0)
(363.461 154.413 0)
(363.626 154.416 0)
(363.792 154.426 0)
(363.885 154.428 0)
(363.903 154.401 0)
(363.878 154.349 0)
(363.826 154.302 0)
(363.753 154.281 0)
(363.676 154.301 0)
(363.613 154.303 0)
(363.583 154.287 0)
(363.572 154.256 0)
(363.581 154.212 0)
(363.568 154.209 0)
(363.496 154.208 0)
(363.276 154.179 0)
(362.69 154.039 0)
(361.51 153.649 0)
(359.645 153.036 0)
(357.756 152.366 0)
(356.616 151.987 0)
(356.217 151.797 0)
(356.046 151.683 0)
(355.944 151.581 0)
(355.863 151.488 0)
(355.809 151.445 0)
(355.772 151.429 0)
(355.758 151.415 0)
(355.796 151.403 0)
(355.865 151.404 0)
(355.962 151.415 0)
(356.073 151.439 0)
(356.188 151.481 0)
(356.305 151.542 0)
(356.433 151.608 0)
(356.607 151.665 0)
(356.822 151.722 0)
(357.045 151.791 0)
(357.269 151.883 0)
(357.488 151.985 0)
(357.694 152.092 0)
(357.9 152.198 0)
(358.122 152.302 0)
(358.365 152.404 0)
(358.625 152.513 0)
(358.904 152.634 0)
(359.192 152.76 0)
(359.48 152.887 0)
(359.758 153.014 0)
(360.021 153.135 0)
(360.275 153.24 0)
(360.545 153.316 0)
(360.835 153.376 0)
(361.14 153.426 0)
(361.462 153.478 0)
(361.81 153.534 0)
(361.999 153.63 0)
(363.615 155.099 0)
(363.072 154.822 0)
(363.313 154.617 0)
(363.828 154.339 0)
(364.179 154.34 0)
(364.244 154.491 0)
(364.159 154.804 0)
(363.969 154.923 0)
(363.79 154.807 0)
(363.691 154.598 0)
(363.728 154.47 0)
(363.8 154.486 0)
(363.873 154.551 0)
(363.935 154.608 0)
(363.977 154.623 0)
(363.999 154.594 0)
(364.007 154.525 0)
(363.98 154.452 0)
(363.916 154.43 0)
(363.828 154.431 0)
(363.726 154.421 0)
(363.675 154.387 0)
(363.678 154.341 0)
(363.694 154.301 0)
(363.671 154.296 0)
(363.589 154.291 0)
(363.309 154.233 0)
(362.557 154.067 0)
(361.156 153.568 0)
(359.157 152.929 0)
(357.406 152.331 0)
(356.549 151.959 0)
(356.244 151.792 0)
(356.099 151.686 0)
(356.005 151.586 0)
(355.913 151.494 0)
(355.846 151.435 0)
(355.799 151.404 0)
(355.773 151.402 0)
(355.803 151.414 0)
(355.877 151.433 0)
(355.981 151.458 0)
(356.106 151.48 0)
(356.239 151.501 0)
(356.374 151.53 0)
(356.509 151.584 0)
(356.666 151.661 0)
(356.867 151.741 0)
(357.093 151.826 0)
(357.329 151.919 0)
(357.559 152.018 0)
(357.77 152.121 0)
(357.974 152.222 0)
(358.199 152.32 0)
(358.456 152.414 0)
(358.729 152.511 0)
(359.018 152.611 0)
(359.313 152.718 0)
(359.606 152.838 0)
(359.889 152.974 0)
(360.141 153.121 0)
(360.359 153.262 0)
(360.585 153.372 0)
(360.857 153.457 0)
(361.153 153.528 0)
(361.471 153.597 0)
(361.831 153.642 0)
(362.034 153.749 0)
(363.477 154.341 0)
(363.707 154.348 0)
(364.087 154.437 0)
(364.229 154.187 0)
(364.192 154.055 0)
(364.206 154.277 0)
(364.177 154.743 0)
(364.089 154.794 0)
(364.043 154.675 0)
(364.075 154.53 0)
(364.089 154.477 0)
(364.106 154.516 0)
(364.099 154.571 0)
(364.101 154.618 0)
(364.124 154.612 0)
(364.181 154.561 0)
(364.234 154.513 0)
(364.214 154.506 0)
(364.149 154.522 0)
(364.053 154.521 0)
(363.928 154.508 0)
(363.846 154.495 0)
(363.849 154.489 0)
(363.876 154.484 0)
(363.834 154.475 0)
(363.719 154.459 0)
(363.35 154.343 0)
(362.469 154.013 0)
(360.799 153.469 0)
(358.759 152.793 0)
(357.187 152.298 0)
(356.556 152.042 0)
(356.32 151.909 0)
(356.207 151.8 0)
(356.136 151.693 0)
(356.057 151.598 0)
(355.999 151.524 0)
(355.957 151.464 0)
(355.928 151.445 0)
(355.955 151.451 0)
(356.035 151.465 0)
(356.144 151.493 0)
(356.273 151.53 0)
(356.409 151.578 0)
(356.541 151.638 0)
(356.683 151.703 0)
(356.849 151.763 0)
(357.048 151.824 0)
(357.274 151.898 0)
(357.511 151.986 0)
(357.748 152.076 0)
(357.968 152.169 0)
(358.176 152.267 0)
(358.397 152.382 0)
(358.65 152.504 0)
(358.924 152.619 0)
(359.211 152.721 0)
(359.507 152.809 0)
(359.809 152.883 0)
(360.099 152.965 0)
(360.366 153.063 0)
(360.597 153.185 0)
(360.806 153.331 0)
(361.034 153.48 0)
(361.302 153.605 0)
(361.595 153.712 0)
(361.94 153.776 0)
(362.165 153.881 0)
(364.584 154.088 0)
(364.746 154.679 0)
(364.699 154.698 0)
(364.327 153.91 0)
(364.133 153.891 0)
(364.166 154.188 0)
(364.171 154.556 0)
(364.139 154.686 0)
(364.15 154.656 0)
(364.257 154.629 0)
(364.297 154.624 0)
(364.259 154.606 0)
(364.191 154.583 0)
(364.186 154.573 0)
(364.206 154.568 0)
(364.267 154.567 0)
(364.348 154.572 0)
(364.366 154.559 0)
(364.315 154.53 0)
(364.228 154.486 0)
(364.115 154.429 0)
(364.049 154.435 0)
(364.058 154.449 0)
(364.078 154.481 0)
(363.999 154.479 0)
(363.829 154.452 0)
(363.338 154.299 0)
(362.178 153.998 0)
(360.338 153.372 0)
(358.255 152.747 0)
(357.007 152.267 0)
(356.582 152.018 0)
(356.419 151.874 0)
(356.337 151.772 0)
(356.28 151.691 0)
(356.212 151.639 0)
(356.16 151.605 0)
(356.116 151.583 0)
(356.08 151.593 0)
(356.096 151.619 0)
(356.175 151.653 0)
(356.289 151.688 0)
(356.428 151.724 0)
(356.589 151.764 0)
(356.768 151.793 0)
(356.948 151.8 0)
(357.127 151.836 0)
(357.321 151.905 0)
(357.542 151.98 0)
(357.779 152.044 0)
(358.011 152.114 0)
(358.231 152.198 0)
(358.439 152.318 0)
(358.654 152.458 0)
(358.895 152.597 0)
(359.176 152.717 0)
(359.467 152.824 0)
(359.757 152.909 0)
(360.047 152.972 0)
(360.333 153.027 0)
(360.602 153.098 0)
(360.851 153.199 0)
(361.08 153.332 0)
(361.298 153.498 0)
(361.52 153.662 0)
(361.784 153.798 0)
(362.117 153.879 0)
(362.343 153.96 0)
(364.225 156.16 0)
(364.679 156.184 0)
(364.536 155.307 0)
(364.272 154.254 0)
(364.182 154.076 0)
(364.11 154.345 0)
(364.02 154.481 0)
(364.01 154.46 0)
(364.222 154.514 0)
(364.405 154.655 0)
(364.421 154.702 0)
(364.328 154.688 0)
(364.209 154.622 0)
(364.19 154.562 0)
(364.219 154.539 0)
(364.285 154.557 0)
(364.366 154.606 0)
(364.39 154.612 0)
(364.335 154.581 0)
(364.256 154.547 0)
(364.183 154.518 0)
(364.18 154.494 0)
(364.189 154.496 0)
(364.172 154.526 0)
(364.045 154.521 0)
(363.798 154.486 0)
(363.153 154.3 0)
(361.816 153.863 0)
(359.795 153.198 0)
(357.832 152.562 0)
(356.846 152.173 0)
(356.533 151.999 0)
(356.411 151.868 0)
(356.354 151.769 0)
(356.321 151.696 0)
(356.287 151.661 0)
(356.272 151.627 0)
(356.257 151.611 0)
(356.23 151.624 0)
(356.226 151.651 0)
(356.311 151.673 0)
(356.435 151.698 0)
(356.582 151.728 0)
(356.752 151.753 0)
(356.941 151.796 0)
(357.132 151.866 0)
(357.332 151.934 0)
(357.54 151.995 0)
(357.76 152.054 0)
(357.984 152.127 0)
(358.205 152.218 0)
(358.421 152.335 0)
(358.638 152.465 0)
(358.854 152.597 0)
(359.072 152.734 0)
(359.33 152.859 0)
(359.627 152.963 0)
(359.932 153.035 0)
(360.239 153.071 0)
(360.539 153.089 0)
(360.821 153.122 0)
(361.085 153.196 0)
(361.338 153.305 0)
(361.576 153.447 0)
(361.795 153.602 0)
(362.015 153.765 0)
(362.317 153.872 0)
(362.503 153.976 0)
(383.604 144.068 0)
(367.644 157.497 0)
(363.995 155.971 0)
(364.121 155.028 0)
(364.218 154.311 0)
(364.039 154.238 0)
(363.788 154.262 0)
(363.844 154.293 0)
(364.233 154.513 0)
(364.542 154.773 0)
(364.486 154.814 0)
(364.371 154.759 0)
(364.241 154.627 0)
(364.201 154.498 0)
(364.23 154.458 0)
(364.279 154.501 0)
(364.335 154.611 0)
(364.337 154.688 0)
(364.278 154.674 0)
(364.219 154.631 0)
(364.21 154.592 0)
(364.236 154.577 0)
(364.254 154.592 0)
(364.193 154.591 0)
(364.059 154.559 0)
(363.746 154.442 0)
(362.949 154.159 0)
(361.391 153.641 0)
(359.231 152.968 0)
(357.441 152.423 0)
(356.693 152.068 0)
(356.449 151.926 0)
(356.344 151.81 0)
(356.303 151.75 0)
(356.287 151.711 0)
(356.279 151.696 0)
(356.289 151.677 0)
(356.295 151.671 0)
(356.285 151.691 0)
(356.286 151.718 0)
(356.354 151.736 0)
(356.485 151.756 0)
(356.644 151.77 0)
(356.831 151.802 0)
(357.018 151.865 0)
(357.222 151.942 0)
(357.431 152.022 0)
(357.64 152.092 0)
(357.858 152.148 0)
(358.087 152.203 0)
(358.322 152.278 0)
(358.558 152.378 0)
(358.797 152.488 0)
(359.021 152.615 0)
(359.234 152.749 0)
(359.459 152.877 0)
(359.729 152.979 0)
(360.026 153.052 0)
(360.332 153.093 0)
(360.64 153.127 0)
(360.946 153.168 0)
(361.244 153.228 0)
(361.526 153.31 0)
(361.795 153.413 0)
(362.038 153.526 0)
(362.258 153.677 0)
(362.509 153.807 0)
(362.657 153.964 0)
(498.036 71.7506 0)
(387.772 142.859 0)
(364.636 157.578 0)
(364.35 155.629 0)
(364.596 153.824 0)
(364.224 153.823 0)
(363.724 153.929 0)
(363.951 154.191 0)
(364.397 154.536 0)
(364.697 154.872 0)
(364.579 154.881 0)
(364.437 154.805 0)
(364.28 154.628 0)
(364.222 154.409 0)
(364.238 154.328 0)
(364.265 154.369 0)
(364.303 154.514 0)
(364.288 154.654 0)
(364.219 154.723 0)
(364.19 154.733 0)
(364.218 154.733 0)
(364.262 154.736 0)
(364.264 154.726 0)
(364.196 154.672 0)
(364.042 154.596 0)
(363.608 154.43 0)
(362.631 154.068 0)
(360.835 153.487 0)
(358.638 152.778 0)
(357.119 152.261 0)
(356.543 151.978 0)
(356.367 151.878 0)
(356.288 151.795 0)
(356.259 151.742 0)
(356.256 151.719 0)
(356.266 151.71 0)
(356.294 151.709 0)
(356.31 151.725 0)
(356.307 151.751 0)
(356.313 151.767 0)
(356.384 151.786 0)
(356.515 151.817 0)
(356.689 151.852 0)
(356.888 151.896 0)
(357.09 151.967 0)
(357.297 152.052 0)
(357.496 152.14 0)
(357.691 152.218 0)
(357.897 152.276 0)
(358.129 152.323 0)
(358.379 152.377 0)
(358.632 152.452 0)
(358.883 152.553 0)
(359.126 152.67 0)
(359.362 152.795 0)
(359.583 152.917 0)
(359.815 153.021 0)
(360.083 153.1 0)
(360.374 153.154 0)
(360.685 153.183 0)
(361.015 153.203 0)
(361.341 153.237 0)
(361.646 153.301 0)
(361.939 153.396 0)
(362.215 153.496 0)
(362.47 153.645 0)
(362.722 153.789 0)
(362.844 153.981 0)
(575.063 5.07008 0)
(487.457 74.6557 0)
(392.796 144.969 0)
(368.223 154.058 0)
(365.261 154.275 0)
(363.86 154.117 0)
(363.557 154.061 0)
(364.066 154.187 0)
(364.566 154.494 0)
(364.713 154.87 0)
(364.579 154.937 0)
(364.451 154.897 0)
(364.295 154.664 0)
(364.216 154.362 0)
(364.245 154.223 0)
(364.288 154.26 0)
(364.321 154.381 0)
(364.292 154.551 0)
(364.22 154.729 0)
(364.196 154.834 0)
(364.263 154.873 0)
(364.309 154.874 0)
(364.287 154.828 0)
(364.2 154.754 0)
(363.963 154.638 0)
(363.394 154.426 0)
(362.209 153.98 0)
(360.178 153.355 0)
(358.089 152.603 0)
(356.813 152.152 0)
(356.422 151.959 0)
(356.31 151.888 0)
(356.225 151.818 0)
(356.176 151.785 0)
(356.177 151.773 0)
(356.21 151.749 0)
(356.251 151.732 0)
(356.282 151.737 0)
(356.292 151.761 0)
(356.309 151.802 0)
(356.403 151.848 0)
(356.547 151.897 0)
(356.731 151.944 0)
(356.939 152.001 0)
(357.157 152.078 0)
(357.366 152.153 0)
(357.561 152.23 0)
(357.746 152.31 0)
(357.935 152.381 0)
(358.161 152.435 0)
(358.418 152.483 0)
(358.693 152.529 0)
(358.967 152.589 0)
(359.231 152.687 0)
(359.486 152.801 0)
(359.724 152.925 0)
(359.941 153.051 0)
(360.167 153.155 0)
(360.429 153.225 0)
(360.727 153.268 0)
(361.056 153.284 0)
(361.405 153.294 0)
(361.739 153.329 0)
(362.051 153.418 0)
(362.345 153.522 0)
(362.634 153.677 0)
(362.924 153.835 0)
(363.056 154.039 0)
(579.976 0.0279664 0)
(573.573 5.77122 0)
(506.873 70.2713 0)
(382.58 146.175 0)
(363.642 159.196 0)
(362.674 155.184 0)
(363.438 153.628 0)
(364.174 153.726 0)
(364.707 154.228 0)
(364.694 154.758 0)
(364.573 155.021 0)
(364.42 155.064 0)
(364.27 154.81 0)
(364.175 154.441 0)
(364.251 154.241 0)
(364.316 154.255 0)
(364.339 154.348 0)
(364.317 154.514 0)
(364.274 154.69 0)
(364.251 154.834 0)
(364.308 154.91 0)
(364.321 154.899 0)
(364.287 154.849 0)
(364.163 154.759 0)
(363.852 154.63 0)
(363.134 154.369 0)
(361.697 153.874 0)
(359.473 153.212 0)
(357.572 152.518 0)
(356.567 152.114 0)
(356.322 151.992 0)
(356.23 151.949 0)
(356.133 151.905 0)
(356.059 151.881 0)
(356.054 151.856 0)
(356.088 151.814 0)
(356.132 151.786 0)
(356.178 151.791 0)
(356.212 151.806 0)
(356.26 151.839 0)
(356.381 151.892 0)
(356.547 151.948 0)
(356.757 151.998 0)
(356.986 152.047 0)
(357.211 152.123 0)
(357.425 152.202 0)
(357.62 152.283 0)
(357.803 152.361 0)
(357.981 152.431 0)
(358.184 152.489 0)
(358.434 152.542 0)
(358.709 152.587 0)
(359.003 152.633 0)
(359.298 152.697 0)
(359.57 152.798 0)
(359.827 152.916 0)
(360.055 153.043 0)
(360.26 153.169 0)
(360.479 153.275 0)
(360.742 153.351 0)
(361.05 153.406 0)
(361.391 153.443 0)
(361.755 153.47 0)
(362.121 153.53 0)
(362.455 153.628 0)
(362.782 153.774 0)
(363.102 153.922 0)
(363.26 154.11 0)
(580 1.17537e-05 0)
(579.97 0.0341031 0)
(575.655 4.71846 0)
(493.014 70.7552 0)
(404.345 140.991 0)
(369.093 152.651 0)
(364.585 152.783 0)
(364.487 153.412 0)
(364.731 153.969 0)
(364.699 154.624 0)
(364.58 155.139 0)
(364.411 155.175 0)
(364.213 154.961 0)
(364.134 154.545 0)
(364.261 154.365 0)
(364.354 154.388 0)
(364.352 154.453 0)
(364.327 154.549 0)
(364.33 154.663 0)
(364.337 154.79 0)
(364.321 154.881 0)
(364.306 154.851 0)
(364.241 154.799 0)
(364.066 154.714 0)
(363.693 154.565 0)
(362.83 154.253 0)
(361.108 153.732 0)
(358.801 153.035 0)
(357.121 152.465 0)
(356.407 152.146 0)
(356.231 152.065 0)
(356.122 152.051 0)
(356.01 152.036 0)
(355.927 152.014 0)
(355.901 151.975 0)
(355.922 151.923 0)
(355.969 151.866 0)
(356.03 151.857 0)
(356.097 151.886 0)
(356.19 151.93 0)
(356.345 151.983 0)
(356.539 152.031 0)
(356.772 152.069 0)
(357.013 152.106 0)
(357.24 152.161 0)
(357.457 152.226 0)
(357.66 152.295 0)
(357.852 152.365 0)
(358.03 152.437 0)
(358.21 152.5 0)
(358.442 152.551 0)
(358.71 152.604 0)
(359.001 152.657 0)
(359.312 152.715 0)
(359.604 152.794 0)
(359.874 152.9 0)
(360.128 153.012 0)
(360.344 153.134 0)
(360.542 153.256 0)
(360.77 153.37 0)
(361.052 153.472 0)
(361.385 153.573 0)
(361.74 153.662 0)
(362.124 153.75 0)
(362.509 153.828 0)
(362.871 153.931 0)
(363.219 154.046 0)
(363.425 154.181 0)
(580 4.53572e-09 0)
(580 1.31239e-05 0)
(579.98 0.0219949 0)
(574.63 4.99748 0)
(518.753 63.8199 0)
(381.528 148.832 0)
(360.884 153.538 0)
(363.527 153.68 0)
(364.108 153.96 0)
(364.335 154.648 0)
(364.469 155.323 0)
(364.404 155.36 0)
(364.119 155.063 0)
(364.169 154.621 0)
(364.335 154.504 0)
(364.366 154.521 0)
(364.309 154.563 0)
(364.314 154.609 0)
(364.376 154.649 0)
(364.42 154.749 0)
(364.36 154.802 0)
(364.267 154.748 0)
(364.155 154.719 0)
(363.939 154.631 0)
(363.486 154.461 0)
(362.451 154.101 0)
(360.472 153.549 0)
(358.198 152.846 0)
(356.793 152.4 0)
(356.294 152.167 0)
(356.143 152.155 0)
(356.016 152.19 0)
(355.886 152.198 0)
(355.796 152.166 0)
(355.757 152.105 0)
(355.775 152.037 0)
(355.828 151.966 0)
(355.901 151.93 0)
(355.989 151.935 0)
(356.11 151.96 0)
(356.292 151.999 0)
(356.517 152.036 0)
(356.766 152.071 0)
(357.014 152.111 0)
(357.245 152.165 0)
(357.463 152.23 0)
(357.673 152.3 0)
(357.876 152.372 0)
(358.069 152.442 0)
(358.245 152.503 0)
(358.448 152.56 0)
(358.708 152.629 0)
(358.991 152.69 0)
(359.301 152.743 0)
(359.607 152.8 0)
(359.885 152.886 0)
(360.155 152.982 0)
(360.396 153.086 0)
(360.613 153.212 0)
(360.846 153.359 0)
(361.119 153.507 0)
(361.431 153.655 0)
(361.775 153.795 0)
(362.142 153.929 0)
(362.523 154.03 0)
(362.908 154.107 0)
(363.283 154.157 0)
(363.523 154.236 0)
(580 5.0548e-13 0)
(580 3.9863e-09 0)
(580 9.31127e-06 0)
(579.979 0.0237513 0)
(576.741 3.71488 0)
(504.86 63.2371 0)
(410.623 134.51 0)
(368.145 155.852 0)
(363.488 153.892 0)
(364.03 154 0)
(364.419 154.929 0)
(364.128 155.177 0)
(363.845 154.726 0)
(364.259 154.534 0)
(364.464 154.613 0)
(364.406 154.694 0)
(364.332 154.673 0)
(364.349 154.643 0)
(364.43 154.645 0)
(364.455 154.71 0)
(364.365 154.726 0)
(364.204 154.706 0)
(364.063 154.687 0)
(363.816 154.586 0)
(363.251 154.373 0)
(361.986 153.939 0)
(359.776 153.333 0)
(357.674 152.645 0)
(356.56 152.3 0)
(356.189 152.15 0)
(356.044 152.187 0)
(355.89 152.26 0)
(355.75 152.296 0)
(355.669 152.274 0)
(355.647 152.219 0)
(355.676 152.134 0)
(355.745 152.038 0)
(355.833 151.985 0)
(355.932 151.98 0)
(356.055 151.995 0)
(356.23 152.015 0)
(356.457 152.04 0)
(356.71 152.076 0)
(356.965 152.126 0)
(357.208 152.187 0)
(357.438 152.259 0)
(357.661 152.339 0)
(357.883 152.411 0)
(358.095 152.469 0)
(358.286 152.522 0)
(358.481 152.576 0)
(358.731 152.631 0)
(359.011 152.69 0)
(359.312 152.742 0)
(359.625 152.785 0)
(359.919 152.844 0)
(360.204 152.921 0)
(360.473 153.014 0)
(360.716 153.138 0)
(360.962 153.307 0)
(361.237 153.508 0)
(361.54 153.714 0)
(361.867 153.889 0)
(362.215 154.031 0)
(362.569 154.14 0)
(362.922 154.212 0)
(363.3 154.244 0)
(363.588 154.263 0)
(580 -4.21217e-13 0)
(580 5.14113e-13 0)
(580 3.01489e-09 0)
(580 8.84443e-06 0)
(579.988 0.0129079 0)
(576.253 3.72743 0)
(527.197 53.739 0)
(392.919 139.39 0)
(368.118 148.999 0)
(364.955 152.673 0)
(364.12 155.405 0)
(363.224 154.656 0)
(363.791 154.07 0)
(364.587 154.365 0)
(364.649 154.657 0)
(364.422 154.832 0)
(364.312 154.827 0)
(364.341 154.768 0)
(364.423 154.718 0)
(364.423 154.728 0)
(364.348 154.72 0)
(364.176 154.714 0)
(364.009 154.696 0)
(363.716 154.568 0)
(362.992 154.292 0)
(361.436 153.767 0)
(359.068 153.088 0)
(357.236 152.438 0)
(356.411 152.184 0)
(356.117 152.111 0)
(355.949 152.207 0)
(355.772 152.337 0)
(355.632 152.385 0)
(355.563 152.354 0)
(355.559 152.292 0)
(355.614 152.204 0)
(355.707 152.104 0)
(355.81 152.038 0)
(355.926 152.013 0)
(356.059 151.997 0)
(356.213 151.984 0)
(356.424 151.994 0)
(356.67 152.049 0)
(356.914 152.131 0)
(357.156 152.219 0)
(357.398 152.302 0)
(357.629 152.379 0)
(357.868 152.445 0)
(358.107 152.491 0)
(358.331 152.533 0)
(358.546 152.586 0)
(358.78 152.645 0)
(359.048 152.709 0)
(359.335 152.769 0)
(359.636 152.814 0)
(359.936 152.855 0)
(360.231 152.909 0)
(360.52 152.986 0)
(360.803 153.11 0)
(361.082 153.278 0)
(361.377 153.472 0)
(361.687 153.681 0)
(361.992 153.879 0)
(362.306 154.046 0)
(362.639 154.161 0)
(362.959 154.233 0)
(363.313 154.273 0)
(363.63 154.276 0)
(580 -4.62136e-13 0)
(580 -2.83579e-13 0)
(580 2.58307e-13 0)
(580 2.14249e-09 0)
(580 5.27446e-06 0)
(579.989 0.0122344 0)
(577.954 2.36515 0)
(522.396 47.8845 0)
(410.329 127.961 0)
(365.814 158.75 0)
(363.193 158.003 0)
(362.519 153.03 0)
(364.382 153.175 0)
(365.254 154.622 0)
(364.478 155.044 0)
(364.042 155.078 0)
(364.002 155.031 0)
(364.177 154.937 0)
(364.35 154.77 0)
(364.388 154.739 0)
(364.344 154.729 0)
(364.202 154.719 0)
(363.998 154.678 0)
(363.619 154.524 0)
(362.691 154.168 0)
(360.818 153.547 0)
(358.425 152.786 0)
(356.909 152.247 0)
(356.305 152.079 0)
(356.053 152.076 0)
(355.869 152.226 0)
(355.67 152.366 0)
(355.524 152.411 0)
(355.475 152.386 0)
(355.501 152.341 0)
(355.59 152.256 0)
(355.712 152.155 0)
(355.822 152.103 0)
(355.943 152.063 0)
(356.085 152.024 0)
(356.235 151.993 0)
(356.424 151.994 0)
(356.653 152.057 0)
(356.883 152.144 0)
(357.128 152.245 0)
(357.371 152.336 0)
(357.605 152.424 0)
(357.85 152.488 0)
(358.106 152.523 0)
(358.36 152.546 0)
(358.606 152.588 0)
(358.853 152.654 0)
(359.118 152.729 0)
(359.398 152.794 0)
(359.686 152.843 0)
(359.981 152.888 0)
(360.278 152.938 0)
(360.574 153.009 0)
(360.873 153.115 0)
(361.19 153.259 0)
(361.519 153.432 0)
(361.843 153.618 0)
(362.146 153.807 0)
(362.427 153.983 0)
(362.715 154.109 0)
(363.017 154.203 0)
(363.349 154.254 0)
(363.669 154.282 0)
(580 4.39533e-13 0)
(580 3.39386e-13 0)
(580 1.6915e-13 0)
(580 5.11358e-13 0)
(580 1.31909e-09 0)
(580 4.07079e-06 0)
(579.995 0.00505136 0)
(578.024 2.05921 0)
(533.698 41.7924 0)
(411.824 127.81 0)
(372.44 150.97 0)
(364.31 151.5 0)
(365.866 154.368 0)
(365.04 155.551 0)
(363.49 155.141 0)
(363.532 154.884 0)
(363.834 154.669 0)
(364.194 154.576 0)
(364.374 154.626 0)
(364.456 154.731 0)
(364.389 154.75 0)
(364.249 154.697 0)
(364.04 154.597 0)
(363.559 154.397 0)
(362.389 153.962 0)
(360.203 153.284 0)
(357.924 152.506 0)
(356.713 152.168 0)
(356.231 152.057 0)
(356.002 152.092 0)
(355.815 152.273 0)
(355.611 152.405 0)
(355.456 152.449 0)
(355.418 152.418 0)
(355.461 152.364 0)
(355.583 152.268 0)
(355.746 152.158 0)
(355.885 152.126 0)
(356.008 152.116 0)
(356.14 152.076 0)
(356.271 152.035 0)