/*--------------------------------*- C++ -*----------------------------------*\
| =========                 |                                                 |
| \\      /  F ield         | OpenFOAM: The Open Source CFD Toolbox           |
|  \\    /   O peration     | Version:  2306                                  |
|   \\  /    A nd           | Website:  www.openfoam.com                      |
|    \\/     M anipulation  |                                                 |
\*---------------------------------------------------------------------------*/
FoamFile
{
    version     2.0;
    format      ascii;
    arch        "LSB;label=32;scalar=64";
    class       volVectorField;
    location    "4e-05";
    object      U;
}
// * * * * * * * * * * * * * * * * * * * * * * * * * * * * * * * * * * * * * //

dimensions      [0 1 -1 0 0 0 0];

internalField   nonuniform List<vector> 
9044
(
(580 5.64661e-13 0)
(580 7.83496e-13 0)
(580 3.98365e-13 0)
(580 5.79362e-13 0)
(580 -4.76629e-13 0)
(580 -5.86274e-13 0)
(580 -4.08205e-13 0)
(580 -5.92651e-13 0)
(580 3.2626e-13 0)
(580 2.2302e-13 0)
(580 -8.03549e-13 0)
(580 -7.86566e-13 0)
(580 -2.54142e-12 0)
(580 -2.57231e-12 0)
(580 -2.94953e-12 0)
(580 -2.9896e-12 0)
(580 -1.65126e-12 0)
(580 -1.63799e-12 0)
(580 2.99241e-13 0)
(580 3.47577e-13 0)
(580 1.06029e-12 0)
(580 9.86543e-13 0)
(580 4.58987e-13 0)
(580 3.61663e-13 0)
(580 1.35006e-13 0)
(580 1.39496e-13 0)
(580 -3.60527e-13 0)
(580 -2.18802e-13 0)
(580 3.51873e-13 0)
(580 4.61384e-13 0)
(580 5.68791e-13 0)
(580 6.1161e-13 0)
(580 1.67227e-12 0)
(580 1.66421e-12 0)
(580 1.59802e-12 0)
(580 1.56825e-12 0)
(580 1.38811e-12 0)
(580 1.4513e-12 0)
(580 1.51307e-12 0)
(580 1.62869e-12 0)
(580 1.91884e-12 0)
(580 2.17786e-12 0)
(580 1.3083e-12 0)
(580 2.96716e-14 0)
(580 1.02341e-12 0)
(580 6.70738e-13 0)
(580 9.63865e-14 0)
(580 3.9834e-13 0)
(580 1.00062e-12 0)
(580 1.28237e-12 0)
(580 1.77483e-12 0)
(580 1.77661e-12 0)
(580 1.94357e-12 0)
(580 2.07594e-12 0)
(580 2.26179e-12 0)
(580 2.02067e-12 0)
(580 1.68758e-12 0)
(580 1.86053e-12 0)
(580 1.92038e-12 0)
(580 2.17247e-12 0)
(580 2.47961e-12 0)
(580 2.89486e-12 0)
(580 3.31309e-12 0)
(580 3.70154e-12 0)
(580 3.86165e-12 0)
(580 3.6596e-12 0)
(580 3.29738e-12 0)
(580 2.19807e-12 0)
(580 1.71118e-12 0)
(580 1.8422e-12 0)
(580 2.06626e-12 0)
(580 2.18094e-12 0)
(580 2.21282e-12 0)
(580 2.07209e-12 0)
(580 1.99751e-12 0)
(580 1.96929e-12 0)
(580 1.78831e-12 0)
(580 2.15912e-12 0)
(580 2.25721e-12 0)
(580 2.68906e-12 0)
(580 3.10276e-12 0)
(580 3.66155e-12 0)
(580 3.64755e-12 0)
(580 3.68833e-12 0)
(580 4.1323e-12 0)
(580 4.76155e-12 0)
(580 4.45099e-12 0)
(580 4.06223e-12 0)
(580 4.21577e-12 0)
(580 4.5834e-12 0)
(580 4.86947e-12 0)
(580 4.87283e-12 0)
(580 4.33128e-12 0)
(580 3.81531e-12 0)
(580 3.03999e-12 0)
(580 2.40461e-12 0)
(580 2.17901e-12 0)
(580 2.17554e-12 0)
(580 2.17632e-12 0)
(580 1.91867e-12 0)
(580 1.032e-12 0)
(580 1.11024e-12 0)
(580 1.33086e-12 0)
(580 1.4267e-12 0)
(580 1.33121e-12 0)
(580 1.24069e-12 0)
(580 1.20963e-12 0)
(580 1.27728e-12 0)
(580 1.23468e-12 0)
(580 1.00004e-12 0)
(580 4.73205e-13 0)
(580 6.94233e-13 0)
(580 3.70337e-13 0)
(580 -9.34604e-13 0)
(580 1.41584e-12 0)
(580 8.74435e-13 0)
(580 9.41956e-13 0)
(580 1.39273e-12 0)
(580 2.34896e-12 0)
(580 2.70469e-12 0)
(580 2.5284e-12 0)
(580 2.54572e-12 0)
(580 2.60624e-12 0)
(580 2.61522e-12 0)
(580 2.67149e-12 0)
(580 2.61375e-12 0)
(580 2.2224e-12 0)
(580 2.24817e-12 0)
(580 2.49574e-12 0)
(580 2.47186e-12 0)
(580 2.38632e-12 0)
(580 2.46033e-12 0)
(580 2.83947e-12 0)
(580 3.16225e-12 0)
(580 3.78781e-12 0)
(580 4.16382e-12 0)
(580 4.31786e-12 0)
(580 4.01194e-12 0)
(580 3.8829e-12 0)
(580 2.71414e-12 0)
(580 2.47742e-12 0)
(580 2.00051e-12 0)
(580 1.97955e-12 0)
(580 2.03177e-12 0)
(580 2.01724e-12 0)
(580 1.72219e-12 0)
(580 1.68734e-12 0)
(580 1.5375e-12 0)
(580 1.41286e-12 0)
(580 1.463e-12 0)
(580 1.39755e-12 0)
(580 1.54696e-12 0)
(580 1.47765e-12 0)
(580 1.51093e-12 0)
(580 1.61294e-12 0)
(580 2.23681e-12 0)
(580 2.34312e-12 0)
(580 2.40673e-12 0)
(580 2.90585e-12 0)
(580 3.54523e-12 0)
(580 3.88549e-12 0)
(580 4.43817e-12 0)
(580 4.40046e-12 0)
(580 3.99324e-12 0)
(580 3.5649e-12 0)
(580 2.56153e-12 0)
(580 1.53017e-12 0)
(580 1.2948e-12 0)
(580 1.34263e-12 0)
(580 1.40363e-12 0)
(580 1.52414e-12 0)
(580 1.44721e-12 0)
(580 1.48799e-12 0)
(580 1.73747e-12 0)
(580 1.6423e-12 0)
(580 1.17932e-12 0)
(580 7.06299e-13 0)
(580 4.50242e-13 0)
(580 1.83142e-13 0)
(580 -6.08502e-13 0)
(580 -9.67685e-13 0)
(580 -1.3729e-12 0)
(580 -1.78693e-12 0)
(580 -1.84444e-12 0)
(580 2.27326e-12 0)
(580 2.60148e-12 0)
(580 1.89565e-12 0)
(580 2.34371e-12 0)
(580 2.69354e-12 0)
(580 2.73003e-12 0)
(580 2.82142e-12 0)
(580 2.76188e-12 0)
(580 2.91348e-12 0)
(580 3.139e-12 0)
(580 3.20054e-12 0)
(580 3.45662e-12 0)
(580 3.60192e-12 0)
(580 3.76127e-12 0)
(580 3.48799e-12 0)
(580 3.17856e-12 0)
(580 3.15062e-12 0)
(580 3.419e-12 0)
(580 3.62451e-12 0)
(580 3.77886e-12 0)
(580 3.78137e-12 0)
(580 3.94496e-12 0)
(580 4.0727e-12 0)
(580 4.27612e-12 0)
(580 4.34498e-12 0)
(580 3.84688e-12 0)
(580 3.23752e-12 0)
(580 2.63497e-12 0)
(580 2.47976e-12 0)
(580 2.54371e-12 0)
(580 2.56976e-12 0)
(580 2.5425e-12 0)
(580 2.50959e-12 0)
(580 2.35243e-12 0)
(580 1.83874e-12 0)
(580 1.70036e-12 0)
(580 1.1737e-12 0)
(580 8.74959e-13 0)
(580 1.00663e-12 0)
(580 9.66085e-13 0)
(580 1.26038e-12 0)
(580 2.10394e-12 0)
(580 1.71263e-12 0)
(580 1.42062e-12 0)
(580 1.31777e-12 0)
(580 1.47595e-12 0)
(580 1.87845e-12 0)
(580 2.41454e-12 0)
(580 2.79415e-12 0)
(580 3.3622e-12 0)
(580 3.60468e-12 0)
(580 3.52352e-12 0)
(580 3.26435e-12 0)
(580 2.23789e-12 0)
(580 1.15465e-12 0)
(580 1.001e-12 0)
(580 1.22694e-12 0)
(580 1.41095e-12 0)
(580 1.72307e-12 0)
(580 1.80966e-12 0)
(580 1.92944e-12 0)
(580 1.64124e-12 0)
(580 1.05044e-12 0)
(580 5.53546e-13 0)
(580 -4.33862e-13 0)
(580 -1.74906e-12 0)
(580 -2.85357e-12 0)
(580 -3.16682e-12 0)
(580 -3.16261e-12 0)
(580 -3.09719e-12 0)
(580 3.32846e-12 0)
(580 4.07347e-12 0)
(580 4.05679e-12 0)
(580 3.13515e-12 0)
(580 3.04222e-12 0)
(580 3.13206e-12 0)
(580 3.23854e-12 0)
(580 3.20367e-12 0)
(580 3.19127e-12 0)
(580 3.63107e-12 0)
(580 3.88462e-12 0)
(580 4.07566e-12 0)
(580 4.28271e-12 0)
(580 4.20671e-12 0)
(580 4.22071e-12 0)
(580 4.42851e-12 0)
(580 4.4146e-12 0)
(580 4.92899e-12 0)
(580 4.94194e-12 0)
(580 4.79484e-12 0)
(580 4.62062e-12 0)
(580 4.30096e-12 0)
(580 4.20108e-12 0)
(580 4.32821e-12 0)
(580 4.35422e-12 0)
(580 4.46099e-12 0)
(580 4.44132e-12 0)
(580 3.99111e-12 0)
(580 3.15175e-12 0)
(580 2.83516e-12 0)
(580 2.81856e-12 0)
(580 2.74362e-12 0)
(580 2.56857e-12 0)
(580 2.03893e-12 0)
(580 1.76607e-12 0)
(580 1.55553e-12 0)
(580 1.31888e-12 0)
(580 1.25758e-12 0)
(580 1.04476e-12 0)
(580 8.23857e-13 0)
(580 7.66282e-13 0)
(580 9.27073e-13 0)
(580 1.1547e-12 0)
(580 5.54514e-13 0)
(580 4.92763e-13 0)
(580 4.06064e-13 0)
(580 5.39364e-13 0)
(580 9.186e-13 0)
(580 9.53787e-13 0)
(580 2.00702e-12 0)
(580 2.72239e-12 0)
(580 2.29478e-12 0)
(580 2.17659e-12 0)
(580 1.97204e-12 0)
(580 1.22948e-12 0)
(580 9.21499e-13 0)
(580 9.16751e-13 0)
(580 8.60115e-13 0)
(580 7.27216e-13 0)
(580 3.53039e-13 0)
(580 5.97474e-13 0)
(580 2.82586e-13 0)
(580 1.29272e-13 0)
(580 -2.03685e-13 0)
(580 -8.33785e-13 0)
(580 -1.26007e-12 0)
(580 -2.39296e-12 0)
(580 -2.78387e-12 0)
(580 -3.41963e-12 0)
(580 -3.67683e-12 0)
(580 5.24053e-12 0)
(580 5.76119e-12 0)
(580 5.77969e-12 0)
(580 4.99296e-12 0)
(580 3.85245e-12 0)
(580 3.58235e-12 0)
(580 3.63372e-12 0)
(580 3.60728e-12 0)
(580 3.52391e-12 0)
(580 3.17254e-12 0)
(580 3.41379e-12 0)
(580 3.80858e-12 0)
(580 4.38622e-12 0)
(580 4.7921e-12 0)
(580 4.94801e-12 0)
(580 5.29829e-12 0)
(580 5.48175e-12 0)
(580 5.33307e-12 0)
(580 5.11696e-12 0)
(580 5.0406e-12 0)
(580 4.69433e-12 0)
(580 4.37468e-12 0)
(580 4.1748e-12 0)
(580 3.94748e-12 0)
(580 3.89219e-12 0)
(580 4.18532e-12 0)
(580 4.40966e-12 0)
(580 4.40335e-12 0)
(580 4.34486e-12 0)
(580 4.05738e-12 0)
(580 3.57298e-12 0)
(580 2.72412e-12 0)
(580 2.39348e-12 0)
(580 1.83764e-12 0)
(580 1.77906e-12 0)
(580 1.09757e-12 0)
(580 9.2417e-13 0)
(580 7.33199e-13 0)
(580 2.01613e-13 0)
(580 3.22936e-14 0)
(580 -2.62541e-13 0)
(580 -2.98824e-13 0)
(580 -6.58795e-13 0)
(580 -6.80953e-13 0)
(580 -7.53642e-13 0)
(580 -6.7535e-13 0)
(580 -6.42015e-13 0)
(580 -6.66074e-13 0)
(580 -7.63548e-13 0)
(580 -2.41952e-13 0)
(580 3.60476e-13 0)
(580 5.0759e-13 0)
(580 6.08159e-13 0)
(580 6.26975e-13 0)
(580 5.95654e-13 0)
(580 4.33718e-13 0)
(580 -4.35509e-13 0)
(580 -1.07504e-12 0)
(580 -1.12315e-12 0)
(580 -1.56313e-12 0)
(580 -1.70353e-12 0)
(580 -1.91469e-12 0)
(580 -2.36284e-12 0)
(580 -2.70984e-12 0)
(580 -2.48977e-12 0)
(580 -2.18834e-12 0)
(580 -2.42776e-12 0)
(580 -2.59661e-12 0)
(580 -3.00049e-12 0)
(580 -3.33318e-12 0)
(580 4.33336e-12 0)
(580 4.93811e-12 0)
(580 4.96441e-12 0)
(580 4.8362e-12 0)
(580 4.64295e-12 0)
(580 4.28341e-12 0)
(580 4.17075e-12 0)
(580 4.17295e-12 0)
(580 4.17396e-12 0)
(580 4.42731e-12 0)
(580 4.44996e-12 0)
(580 4.27945e-12 0)
(580 4.29046e-12 0)
(580 4.50654e-12 0)
(580 5.01915e-12 0)
(580 5.26897e-12 0)
(580 5.29907e-12 0)
(580 5.2545e-12 0)
(580 5.15623e-12 0)
(580 5.01892e-12 0)
(580 5.00256e-12 0)
(580 5.04748e-12 0)
(580 5.29664e-12 0)
(580 5.23321e-12 0)
(580 4.75009e-12 0)
(580 4.00996e-12 0)
(580 3.73369e-12 0)
(580 3.5686e-12 0)
(580 3.38005e-12 0)
(580 3.25887e-12 0)
(580 3.22324e-12 0)
(580 2.98251e-12 0)
(580 2.70287e-12 0)
(580 2.42901e-12 0)
(580 2.40588e-12 0)
(580 1.49895e-12 0)
(580 7.56255e-13 0)
(580 6.4079e-14 0)
(580 -1.38498e-13 0)
(580 -5.42375e-13 0)
(580 -1.13281e-12 0)
(580 -1.65563e-12 0)
(580 -1.93746e-12 0)
(580 -2.06261e-12 0)
(580 -2.0037e-12 0)
(580 -2.02062e-12 0)
(580 -2.12802e-12 0)
(580 -2.19938e-12 0)
(580 -2.37733e-12 0)
(580 -2.53034e-12 0)
(580 -2.51169e-12 0)
(580 -2.4699e-12 0)
(580 -1.32114e-12 0)
(580 -1.05006e-12 0)
(580 -9.64418e-13 0)
(580 -9.63472e-13 0)
(580 -1.17155e-12 0)
(580 -2.56834e-12 0)
(580 -2.93003e-12 0)
(580 -3.29348e-12 0)
(580 -3.58766e-12 0)
(580 -3.2664e-12 0)
(580 -3.16348e-12 0)
(580 -3.40137e-12 0)
(580 -3.11163e-12 0)
(580 -2.84958e-12 0)
(580 -3.11474e-12 0)
(580 -3.74232e-12 0)
(580 -4.03908e-12 0)
(580 -4.11585e-12 0)
(580 2.24524e-12 0)
(580 2.18304e-12 0)
(580 2.30436e-12 0)
(580 2.61698e-12 0)
(580 2.77208e-12 0)
(580 2.98584e-12 0)
(580 3.38008e-12 0)
(580 4.07835e-12 0)
(580 4.81229e-12 0)
(580 4.78086e-12 0)
(580 4.96121e-12 0)
(580 4.88193e-12 0)
(580 5.00579e-12 0)
(580 4.66551e-12 0)
(580 4.29943e-12 0)
(580 4.06102e-12 0)
(580 3.58639e-12 0)
(580 3.77372e-12 0)
(580 3.93105e-12 0)
(580 4.12753e-12 0)
(580 4.7401e-12 0)
(580 5.22873e-12 0)
(580 5.25169e-12 0)
(580 5.09198e-12 0)
(580 4.76732e-12 0)
(580 4.39942e-12 0)
(580 3.99031e-12 0)
(580 3.31605e-12 0)
(580 2.90478e-12 0)
(580 2.66964e-12 0)
(580 2.76573e-12 0)
(580 2.94666e-12 0)
(580 3.04185e-12 0)
(580 3.21376e-12 0)
(580 2.63522e-12 0)
(580 2.00285e-12 0)
(580 1.24965e-12 0)
(580 7.19857e-13 0)
(580 6.27194e-14 0)
(580 -8.82129e-13 0)
(580 -2.12195e-12 0)
(580 -2.77224e-12 0)
(580 -3.12638e-12 0)
(580 -2.79747e-12 0)
(580 -2.70321e-12 0)
(580 -3.09976e-12 0)
(580 -3.61096e-12 0)
(580 -3.7978e-12 0)
(580 -4.30416e-12 0)
(580 -5.12135e-12 0)
(580 -5.56375e-12 0)
(580 -5.48661e-12 0)
(580 -5.03074e-12 0)
(580 -3.70871e-12 0)
(580 -2.62912e-12 0)
(580 -2.50305e-12 0)
(580 -2.87964e-12 0)
(580 -3.38504e-12 0)
(580 -3.99923e-12 0)
(580 -4.47299e-12 0)
(580 -4.38171e-12 0)
(580 -4.08409e-12 0)
(580 -3.56835e-12 0)
(580 -3.91323e-12 0)
(580 -4.46767e-12 0)
(580 -4.78396e-12 0)
(580 -4.26891e-12 0)
(580 -4.11656e-12 0)
(580 -4.07213e-12 0)
(580 -3.97523e-12 0)
(580 1.15519e-12 0)
(580 1.03712e-12 0)
(580 1.81801e-12 0)
(580 2.52141e-12 0)
(580 3.27816e-12 0)
(580 3.78912e-12 0)
(580 3.71973e-12 0)
(580 3.70701e-12 0)
(580 3.76608e-12 0)
(580 3.69881e-12 0)
(580 3.62264e-12 0)
(580 3.64298e-12 0)
(580 3.6778e-12 0)
(580 3.61863e-12 0)
(580 3.4605e-12 0)
(580 3.25422e-12 0)
(580 3.14397e-12 0)
(580 3.1315e-12 0)
(580 3.16489e-12 0)
(580 3.34974e-12 0)
(580 3.51242e-12 0)
(580 3.81029e-12 0)
(580 3.81962e-12 0)
(580 3.68624e-12 0)
(580 3.61124e-12 0)
(580 3.55644e-12 0)
(580 3.65668e-12 0)
(580 3.54161e-12 0)
(580 3.26367e-12 0)
(580 3.00836e-12 0)
(580 2.80916e-12 0)
(580 2.88491e-12 0)
(580 2.94698e-12 0)
(580 2.78425e-12 0)
(580 2.18325e-12 0)
(580 1.31797e-12 0)
(580 6.06826e-13 0)
(580 2.84968e-15 0)
(580 -2.94331e-13 0)
(580 -9.68144e-13 0)
(580 -1.65572e-12 0)
(580 -2.7732e-12 0)
(580 -3.17813e-12 0)
(580 -3.7955e-12 0)
(580 -3.88031e-12 0)
(580 -4.32524e-12 0)
(580 -4.59165e-12 0)
(580 -5.04546e-12 0)
(580 -5.33101e-12 0)
(580 -5.50066e-12 0)
(580 -5.61518e-12 0)
(580 -5.69778e-12 0)
(580 -5.60276e-12 0)
(580 -5.04091e-12 0)
(580 -4.31456e-12 0)
(580 -4.40907e-12 0)
(580 -4.87379e-12 0)
(580 -4.90708e-12 0)
(580 -5.15276e-12 0)
(580 -5.40598e-12 0)
(580 -5.58974e-12 0)
(580 -5.91712e-12 0)
(580 -5.73484e-12 0)
(580 -5.68711e-12 0)
(580 -5.68303e-12 0)
(580 -5.71301e-12 0)
(580 -5.55677e-12 0)
(580 -5.18954e-12 0)
(580 -5.06017e-12 0)
(580 -4.9423e-12 0)
(580 1.88069e-12 0)
(580 2.60406e-12 0)
(580 2.85341e-12 0)
(580 2.93313e-12 0)
(580 3.02579e-12 0)
(580 3.01273e-12 0)
(580 3.02599e-12 0)
(580 2.92344e-12 0)
(580 2.82523e-12 0)
(580 2.70011e-12 0)
(580 2.53003e-12 0)
(580 2.61353e-12 0)
(580 2.70724e-12 0)
(580 2.65372e-12 0)
(580 2.66125e-12 0)
(580 2.76529e-12 0)
(580 2.82835e-12 0)
(580 2.97923e-12 0)
(580 3.11619e-12 0)
(580 3.17525e-12 0)
(580 3.0258e-12 0)
(580 2.74231e-12 0)
(580 2.45283e-12 0)
(580 2.49718e-12 0)
(580 2.56516e-12 0)
(580 2.48374e-12 0)
(580 2.11222e-12 0)
(580 1.98497e-12 0)
(580 2.06498e-12 0)
(580 2.19287e-12 0)
(580 2.01865e-12 0)
(580 1.89414e-12 0)
(580 1.70117e-12 0)
(580 1.22668e-12 0)
(580 8.53034e-13 0)
(580 3.7677e-13 0)
(580 -2.09752e-13 0)
(580 -1.23641e-12 0)
(580 -1.9004e-12 0)
(580 -2.51016e-12 0)
(580 -2.94472e-12 0)
(580 -3.02811e-12 0)
(580 -3.17214e-12 0)
(580 -3.63864e-12 0)
(580 -4.27735e-12 0)
(580 -4.97343e-12 0)
(580 -5.32612e-12 0)
(580 -5.23568e-12 0)
(580 -5.3355e-12 0)
(580 -5.34455e-12 0)
(580 -5.35188e-12 0)
(580 -5.57359e-12 0)
(580 -5.84434e-12 0)
(580 -5.88667e-12 0)
(580 -5.77246e-12 0)
(580 -5.4701e-12 0)
(580 -5.46995e-12 0)
(580 -5.64049e-12 0)
(580 -5.84071e-12 0)
(580 -6.36642e-12 0)
(580 -6.80154e-12 0)
(580 -7.10254e-12 0)
(580 -7.13083e-12 0)
(580 -7.0056e-12 0)
(580 -6.75861e-12 0)
(580 -6.85933e-12 0)
(580 -6.68442e-12 0)
(580 -6.18057e-12 0)
(580 -5.35424e-12 0)
(580 -4.45269e-12 0)
(580 1.2916e-12 0)
(580 1.5462e-12 0)
(580 2.005e-12 0)
(580 2.05779e-12 0)
(580 2.08277e-12 0)
(580 1.73246e-12 0)
(580 1.67242e-12 0)
(580 1.70202e-12 0)
(580 2.38456e-12 0)
(580 2.52012e-12 0)
(580 2.43514e-12 0)
(580 2.09562e-12 0)
(580 1.91199e-12 0)
(580 1.98503e-12 0)
(580 2.28173e-12 0)
(580 2.54852e-12 0)
(580 2.80693e-12 0)
(580 3.05422e-12 0)
(580 2.97658e-12 0)
(580 2.69528e-12 0)
(580 2.36175e-12 0)
(580 1.72788e-12 0)
(580 1.59915e-12 0)
(580 1.64922e-12 0)
(580 1.70009e-12 0)
(580 1.6348e-12 0)
(580 1.23182e-12 0)
(580 1.04895e-12 0)
(580 1.3474e-12 0)
(580 1.65504e-12 0)
(580 1.63505e-12 0)
(580 1.35699e-12 0)
(580 1.02841e-12 0)
(580 5.95178e-13 0)
(580 7.5575e-14 0)
(580 -4.00282e-13 0)
(580 -1.12051e-12 0)
(580 -1.59057e-12 0)
(580 -2.64741e-12 0)
(580 -3.36612e-12 0)
(580 -4.08827e-12 0)
(580 -4.562e-12 0)
(580 -4.59957e-12 0)
(580 -4.63281e-12 0)
(580 -4.87516e-12 0)
(580 -4.87586e-12 0)
(580 -5.27695e-12 0)
(580 -5.47612e-12 0)
(580 -5.5708e-12 0)
(580 -5.73105e-12 0)
(580 -5.73988e-12 0)
(580 -5.49737e-12 0)
(580 -5.49095e-12 0)
(580 -5.83991e-12 0)
(580 -6.22916e-12 0)
(580 -6.33063e-12 0)
(580 -6.33137e-12 0)
(580 -6.5038e-12 0)
(580 -6.51539e-12 0)
(580 -7.00421e-12 0)
(580 -7.18438e-12 0)
(580 -7.1408e-12 0)
(580 -7.27078e-12 0)
(580 -7.41498e-12 0)
(580 -7.77141e-12 0)
(580 -7.74079e-12 0)
(580 -7.30911e-12 0)
(580 -6.58261e-12 0)
(580 -6.04672e-12 0)
(580 -5.37597e-12 0)
(580 7.59055e-13 0)
(580 7.61094e-13 0)
(580 8.7061e-13 0)
(580 7.45647e-13 0)
(580 8.46458e-13 0)
(580 6.69166e-13 0)
(580 4.04475e-13 0)
(580 2.79926e-13 0)
(580 2.17371e-13 0)
(580 2.05973e-13 0)
(580 1.90357e-13 0)
(580 2.40508e-13 0)
(580 -1.19371e-13 0)
(580 -9.81782e-14 0)
(580 -3.48482e-14 0)
(580 -3.12039e-14 0)
(580 -2.6399e-13 0)
(580 -4.55985e-13 0)
(580 -7.20231e-13 0)
(580 -8.75138e-13 0)
(580 -7.19074e-13 0)
(580 -6.06824e-13 0)
(580 -2.7323e-13 0)
(580 4.28602e-14 0)
(580 6.20056e-14 0)
(580 -7.09101e-14 0)
(580 3.63987e-13 0)
(580 6.07893e-13 0)
(580 2.71261e-13 0)
(580 1.01948e-14 0)
(580 -1.91507e-13 0)
(580 -3.87397e-13 0)
(580 -6.9677e-13 0)
(580 -6.95414e-13 0)
(580 -1.56279e-12 0)
(580 -2.1848e-12 0)
(580 -3.0364e-12 0)
(580 -3.69921e-12 0)
(580 -4.33331e-12 0)
(580 -4.66609e-12 0)
(580 -4.92318e-12 0)
(580 -5.20807e-12 0)
(580 -5.5081e-12 0)
(580 -5.4807e-12 0)
(580 -5.39707e-12 0)
(580 -5.34103e-12 0)
(580 -5.57599e-12 0)
(580 -5.93821e-12 0)
(580 -5.84634e-12 0)
(580 -5.672e-12 0)
(580 -5.66879e-12 0)
(580 -5.79293e-12 0)
(580 -6.02637e-12 0)
(580 -6.17088e-12 0)
(580 -6.43266e-12 0)
(580 -6.6211e-12 0)
(580 -6.50889e-12 0)
(580 -6.08225e-12 0)
(580 -5.99453e-12 0)
(580 -6.20243e-12 0)
(580 -6.49663e-12 0)
(580 -6.91009e-12 0)
(580 -7.49518e-12 0)
(580 -7.92992e-12 0)
(580 -8.17196e-12 0)
(580 -8.30044e-12 0)
(580 -8.38037e-12 0)
(580 -8.05884e-12 0)
(580 -7.32891e-12 0)
(580 -5.8949e-12 0)
(580 -2.7028e-12 0)
(580 -2.67552e-12 0)
(580 -2.75043e-12 0)
(580 -2.74636e-12 0)
(580 -2.7653e-12 0)
(580 -2.57985e-12 0)
(580 -2.38385e-12 0)
(580 -2.19604e-12 0)
(580 -2.08002e-12 0)
(580 -1.94336e-12 0)
(580 -1.42318e-12 0)
(580 -7.82205e-13 0)
(580 -7.52852e-13 0)
(580 -1.24041e-12 0)
(580 -1.74955e-12 0)
(580 -2.2004e-12 0)
(580 -2.42699e-12 0)
(580 -2.50604e-12 0)
(580 -2.05188e-12 0)
(580 -1.90289e-12 0)
(580 -1.85393e-12 0)
(580 -1.60706e-12 0)
(580 -1.57648e-12 0)
(580 -1.47044e-12 0)
(580 -1.37316e-12 0)
(580 -1.14653e-12 0)
(580 -1.153e-12 0)
(580 -1.1923e-12 0)
(580 -1.30993e-12 0)
(580 -1.55891e-12 0)
(580 -2.12645e-12 0)
(580 -2.02923e-12 0)
(580 -2.59521e-12 0)
(580 -3.42681e-12 0)
(580 -3.74806e-12 0)
(580 -4.40499e-12 0)
(580 -4.58079e-12 0)
(580 -4.70539e-12 0)
(580 -5.04282e-12 0)
(580 -5.68227e-12 0)
(580 -5.78228e-12 0)
(580 -5.68704e-12 0)
(580 -5.63614e-12 0)
(580 -5.98508e-12 0)
(580 -6.05075e-12 0)
(580 -6.20179e-12 0)
(580 -6.21328e-12 0)
(580 -6.42835e-12 0)
(580 -6.61348e-12 0)
(580 -6.5322e-12 0)
(580 -6.74529e-12 0)
(580 -6.81069e-12 0)
(580 -6.9978e-12 0)
(580 -7.24427e-12 0)
(580 -7.41397e-12 0)
(580 -7.50274e-12 0)
(580 -7.65335e-12 0)
(580 -7.6562e-12 0)
(580 -7.54378e-12 0)
(580 -7.35501e-12 0)
(580 -7.16607e-12 0)
(580 -7.30568e-12 0)
(580 -7.2482e-12 0)
(580 -7.08641e-12 0)
(580 -6.87613e-12 0)
(580 -7.02452e-12 0)
(580 -7.5665e-12 0)
(580 -8.01956e-12 0)
(580 -7.58146e-12 0)
(580 -7.0758e-12 0)
(580 -2.4678e-12 0)
(580 -2.49911e-12 0)
(580 -2.53366e-12 0)
(580 -2.43464e-12 0)
(580 -2.29086e-12 0)
(580 -1.98395e-12 0)
(580 -1.83023e-12 0)
(580 -1.71647e-12 0)
(580 -1.70481e-12 0)
(580 -1.70585e-12 0)
(580 -1.60762e-12 0)
(580 -1.43352e-12 0)
(580 -1.34495e-12 0)
(580 -1.29713e-12 0)
(580 -1.34863e-12 0)
(580 -1.31646e-12 0)
(580 -1.24206e-12 0)
(580 -1.0672e-12 0)
(580 -9.67595e-13 0)
(580 -8.95693e-13 0)
(580 -7.55337e-13 0)
(580 -7.88872e-13 0)
(580 -7.2288e-13 0)
(580 -7.31109e-13 0)
(580 -1.02429e-12 0)
(580 -8.6815e-13 0)
(580 -1.39397e-12 0)
(580 -1.79622e-12 0)
(580 -2.1477e-12 0)
(580 -2.863e-12 0)
(580 -3.21462e-12 0)
(580 -3.59305e-12 0)
(580 -3.75181e-12 0)
(580 -4.31675e-12 0)
(580 -4.9014e-12 0)
(580 -4.91119e-12 0)
(580 -5.03978e-12 0)
(580 -4.77331e-12 0)
(580 -4.78652e-12 0)
(580 -4.38228e-12 0)
(580 -4.33409e-12 0)
(580 -4.07765e-12 0)
(580 -3.79661e-12 0)
(580 -3.91124e-12 0)
(580 -4.37101e-12 0)
(580 -4.73264e-12 0)
(580 -4.65208e-12 0)
(580 -4.74673e-12 0)
(580 -4.97003e-12 0)
(580 -5.26638e-12 0)
(580 -5.3212e-12 0)
(580 -5.4613e-12 0)
(580 -5.85257e-12 0)
(580 -6.495e-12 0)
(580 -6.96396e-12 0)
(580 -7.33264e-12 0)
(580 -7.5241e-12 0)
(580 -7.52874e-12 0)
(580 -7.40265e-12 0)
(580 -7.22916e-12 0)
(580 -7.02905e-12 0)
(580 -6.5154e-12 0)
(580 -6.23381e-12 0)
(580 -6.24192e-12 0)
(580 -6.35285e-12 0)
(580 -6.53969e-12 0)
(580 -6.42838e-12 0)
(580 -6.28153e-12 0)
(580 -6.58883e-12 0)
(580 -6.80554e-12 0)
(580 9.18149e-13 0)
(580 9.96039e-13 0)
(580 1.05428e-12 0)
(580 1.13258e-12 0)
(580 1.06316e-12 0)
(580 9.97305e-13 0)
(580 8.72186e-13 0)
(580 7.31728e-13 0)
(580 4.68717e-13 0)
(580 4.93025e-13 0)
(580 4.02886e-13 0)
(580 1.7411e-13 0)
(580 4.38979e-14 0)
(580 -1.97677e-15 0)
(580 -2.45562e-14 0)
(580 4.83402e-14 0)
(580 -1.39715e-13 0)
(580 -1.72794e-13 0)
(580 -7.73512e-13 0)
(580 -4.40447e-13 0)
(580 -3.19724e-13 0)
(580 -3.7242e-13 0)
(580 -4.77014e-13 0)
(580 -6.33693e-13 0)
(580 -1.36083e-12 0)
(580 -1.73956e-12 0)
(580 -1.91222e-12 0)
(580 -2.21156e-12 0)
(580 -2.6256e-12 0)
(580 -2.9257e-12 0)
(580 -3.08962e-12 0)
(580 -3.00492e-12 0)
(580 -3.09328e-12 0)
(580 -3.08887e-12 0)
(580 -2.85832e-12 0)
(580 -2.78284e-12 0)
(580 -2.56004e-12 0)
(580 -2.2883e-12 0)
(580 -1.86201e-12 0)
(580 -1.54983e-12 0)
(580 -1.37669e-12 0)
(580 -1.20962e-12 0)
(580 -1.10422e-12 0)
(580 -1.01725e-12 0)
(580 -8.82879e-13 0)
(580 -5.00345e-13 0)
(580 -5.57324e-13 0)
(580 -5.60411e-13 0)
(580 -6.22231e-13 0)
(580 -1.04849e-12 0)
(580 -1.48002e-12 0)
(580 -1.59089e-12 0)
(580 -1.58224e-12 0)
(580 -1.58653e-12 0)
(580 -1.65539e-12 0)
(580 -1.75692e-12 0)
(580 -2.16187e-12 0)
(580 -2.27024e-12 0)
(580 -2.70642e-12 0)
(580 -3.58822e-12 0)
(580 -3.97071e-12 0)
(580 -3.89472e-12 0)
(580 -3.70173e-12 0)
(580 -3.47808e-12 0)
(580 -3.24415e-12 0)
(580 -3.33948e-12 0)
(580 -3.51149e-12 0)
(580 -3.7898e-12 0)
(580 -4.11116e-12 0)
(580 -4.23309e-12 0)
(580 3.89508e-12 0)
(580 3.84673e-12 0)
(580 3.70524e-12 0)
(580 3.57655e-12 0)
(580 3.05711e-12 0)
(580 2.1439e-12 0)
(580 1.88743e-12 0)
(580 1.39803e-12 0)
(580 1.32188e-12 0)
(580 1.09034e-12 0)
(580 9.04172e-13 0)
(580 5.99779e-13 0)
(580 5.87131e-13 0)
(580 1.62277e-13 0)
(580 2.74942e-13 0)
(580 6.85382e-13 0)
(580 4.37163e-13 0)
(580 3.81616e-14 0)
(580 -4.21669e-13 0)
(580 -9.03746e-13 0)
(580 -1.5466e-12 0)
(580 -1.8833e-12 0)
(580 -2.27548e-12 0)
(580 -2.66444e-12 0)
(580 -2.88786e-12 0)
(580 -3.27289e-12 0)
(580 -3.49604e-12 0)
(580 -3.59828e-12 0)
(580 -3.62748e-12 0)
(580 -3.73753e-12 0)
(580 -3.88209e-12 0)
(580 -3.8633e-12 0)
(580 -3.63147e-12 0)
(580 -3.27483e-12 0)
(580 -2.58313e-12 0)
(580 -1.61535e-12 0)
(580 -5.44355e-13 0)
(580 2.27372e-14 0)
(580 2.39802e-13 0)
(580 2.47533e-13 0)
(580 3.7485e-13 0)
(580 4.37276e-13 0)
(580 6.22363e-13 0)
(580 7.05808e-13 0)
(580 6.48085e-13 0)
(580 5.87843e-13 0)
(580 7.68782e-13 0)
(580 1.02746e-12 0)
(580 1.31582e-12 0)
(580 1.32417e-12 0)
(580 1.2804e-12 0)
(580 1.17196e-12 0)
(580 1.18446e-12 0)
(580 1.53803e-12 0)
(580 1.51884e-12 0)
(580 1.41624e-12 0)
(580 9.92434e-13 0)
(580 5.15763e-13 0)
(580 3.42093e-13 0)
(580 3.8316e-14 0)
(580 -1.82226e-14 0)
(580 -2.39865e-13 0)
(580 -7.06006e-13 0)
(580 -8.6361e-13 0)
(580 -7.22157e-13 0)
(580 -5.96034e-13 0)
(580 -7.02429e-13 0)
(580 -7.48368e-13 0)
(580 -9.33452e-13 0)
(580 -7.0182e-13 0)
(580 3.26557e-12 0)
(580 2.87235e-12 0)
(580 2.58964e-12 0)
(580 2.17642e-12 0)
(580 2.19878e-12 0)
(580 2.11142e-12 0)
(580 2.01671e-12 0)
(580 1.99528e-12 0)
(580 2.07087e-12 0)
(580 2.01834e-12 0)
(580 1.86173e-12 0)
(580 1.87522e-12 0)
(580 1.60368e-12 0)
(580 1.78048e-12 0)
(580 1.5617e-12 0)
(580 1.09566e-12 0)
(580 7.15746e-13 0)
(580 4.47946e-13 0)
(580 -3.27308e-14 0)
(580 -7.84573e-13 0)
(580 -1.37687e-12 0)
(580 -1.97578e-12 0)
(580 -2.3557e-12 0)
(580 -2.58854e-12 0)
(580 -3.08195e-12 0)
(580 -3.43016e-12 0)
(580 -3.39422e-12 0)
(580 -2.95161e-12 0)
(580 -2.85439e-12 0)
(580 -2.81889e-12 0)
(580 -3.155e-12 0)
(580 -3.53194e-12 0)
(580 -3.07104e-12 0)
(580 -2.00601e-12 0)
(580 -1.45375e-12 0)
(580 -8.41519e-13 0)
(580 -5.50198e-13 0)
(580 -1.74668e-13 0)
(580 3.9509e-13 0)
(580 4.4608e-13 0)
(580 5.23952e-13 0)
(580 8.03968e-13 0)
(580 1.01493e-12 0)
(580 1.03501e-12 0)
(580 1.16447e-12 0)
(580 1.39067e-12 0)
(580 1.47019e-12 0)
(580 1.61225e-12 0)
(580 1.67433e-12 0)
(580 1.71948e-12 0)
(580 1.96789e-12 0)
(580 1.92746e-12 0)
(580 1.88392e-12 0)
(580 1.84721e-12 0)
(580 2.10993e-12 0)
(580 2.02684e-12 0)
(580 2.16142e-12 0)
(580 2.13677e-12 0)
(580 2.1077e-12 0)
(580 2.30922e-12 0)
(580 2.34631e-12 0)
(580 2.20701e-12 0)
(580 2.23343e-12 0)
(580 2.24235e-12 0)
(580 2.31596e-12 0)
(580 2.4077e-12 0)
(580 2.44305e-12 0)
(580 2.37034e-12 0)
(580 2.32404e-12 0)
(580 2.21569e-12 0)
(580 1.34579e-12 0)
(580 1.48891e-12 0)
(580 1.80626e-12 0)
(580 2.29597e-12 0)
(580 2.56594e-12 0)
(580 2.75009e-12 0)
(580 3.0752e-12 0)
(580 3.21874e-12 0)
(580 2.98575e-12 0)
(580 2.88816e-12 0)
(580 2.73015e-12 0)
(580 2.59639e-12 0)
(580 2.26482e-12 0)
(580 1.78504e-12 0)
(580 1.69006e-12 0)
(580 1.55099e-12 0)
(580 1.1669e-12 0)
(580 9.07665e-13 0)
(580 7.26234e-13 0)
(580 3.05016e-13 0)
(580 -1.96968e-13 0)
(580 -7.37837e-13 0)
(580 -1.19682e-12 0)
(580 -1.69666e-12 0)
(580 -1.87979e-12 0)
(580 -1.8274e-12 0)
(580 -1.34462e-12 0)
(580 -1.48464e-12 0)
(580 -1.74393e-12 0)
(580 -1.79411e-12 0)
(580 -1.65202e-12 0)
(580 -1.2897e-12 0)
(580 -1.17842e-12 0)
(580 -1.73583e-12 0)
(580 -1.61318e-12 0)
(580 -1.42011e-12 0)
(580 -1.38377e-12 0)
(580 -1.21433e-12 0)
(580 -2.89649e-13 0)
(580 5.788e-13 0)
(580 1.28716e-12 0)
(580 1.5751e-12 0)
(580 1.6839e-12 0)
(580 1.96399e-12 0)
(580 2.43254e-12 0)
(580 2.51169e-12 0)
(580 2.09962e-12 0)
(580 1.90206e-12 0)
(580 1.74652e-12 0)
(580 1.6488e-12 0)
(580 1.73353e-12 0)
(580 1.81328e-12 0)
(580 2.04047e-12 0)
(580 2.19795e-12 0)
(580 2.30903e-12 0)
(580 2.25044e-12 0)
(580 2.27185e-12 0)
(580 2.21175e-12 0)
(580 2.11253e-12 0)
(580 2.01585e-12 0)
(580 2.32616e-12 0)
(580 2.76256e-12 0)
(580 3.01201e-12 0)
(580 3.23671e-12 0)
(580 3.42846e-12 0)
(580 3.42214e-12 0)
(580 3.53737e-12 0)
(580 3.32657e-12 0)
(580 3.13221e-12 0)
(580 3.06651e-12 0)
(580 -1.55531e-13 0)
(580 3.22909e-14 0)
(580 1.43024e-13 0)
(580 2.94888e-13 0)
(580 4.07423e-13 0)
(580 6.0783e-13 0)
(580 5.64122e-13 0)
(580 7.0945e-13 0)
(580 8.93488e-13 0)
(580 8.91323e-13 0)
(580 8.71743e-13 0)
(580 8.96688e-13 0)
(580 7.85458e-13 0)
(580 5.77882e-13 0)
(580 2.25532e-13 0)
(580 -1.32847e-13 0)
(580 -2.77659e-13 0)
(580 -4.85881e-13 0)
(580 -8.17589e-13 0)
(580 -1.08074e-12 0)
(580 -1.34958e-12 0)
(580 -1.44688e-12 0)
(580 -1.69548e-12 0)
(580 -1.63737e-12 0)
(580 -1.43483e-12 0)
(580 -7.43729e-13 0)
(580 -8.47322e-13 0)
(580 -9.94573e-13 0)
(580 -8.54005e-13 0)
(580 -9.17687e-13 0)
(580 -2.40494e-13 0)
(580 -8.74626e-14 0)
(580 4.66833e-13 0)
(580 5.30369e-13 0)
(580 5.73098e-13 0)
(580 5.60615e-13 0)
(580 5.47296e-13 0)
(580 5.3232e-13 0)
(580 8.95652e-13 0)
(580 1.57393e-12 0)
(580 1.5794e-12 0)
(580 1.65231e-12 0)
(580 1.70852e-12 0)
(580 1.60507e-12 0)
(580 1.46317e-12 0)
(580 1.0128e-12 0)
(580 6.23092e-13 0)
(580 5.02765e-13 0)
(580 6.54268e-13 0)
(580 6.52053e-13 0)
(580 6.13353e-13 0)
(580 7.03301e-13 0)
(580 1.05891e-12 0)
(580 1.20897e-12 0)
(580 1.2126e-12 0)
(580 1.28999e-12 0)
(580 1.2899e-12 0)
(580 1.41767e-12 0)
(580 1.62961e-12 0)
(580 2.15438e-12 0)
(580 2.57132e-12 0)
(580 2.96427e-12 0)
(580 3.03376e-12 0)
(580 2.83818e-12 0)
(580 2.64031e-12 0)
(580 2.70972e-12 0)
(580 2.73456e-12 0)
(580 2.76682e-12 0)
(580 2.61309e-12 0)
(580 2.56033e-12 0)
(580 -1.54513e-12 0)
(580 -1.58083e-12 0)
(580 -1.63031e-12 0)
(580 -1.80044e-12 0)
(580 -1.84234e-12 0)
(580 -1.76177e-12 0)
(580 -1.74211e-12 0)
(580 -1.75064e-12 0)
(580 -1.56452e-12 0)
(580 -1.40171e-12 0)
(580 -1.27925e-12 0)
(580 -1.26425e-12 0)
(580 -1.48931e-12 0)
(580 -1.59978e-12 0)
(580 -1.73236e-12 0)
(580 -1.7529e-12 0)
(580 -1.57852e-12 0)
(580 -1.53214e-12 0)
(580 -1.57769e-12 0)
(580 -1.72247e-12 0)
(580 -1.67368e-12 0)
(580 -1.65556e-12 0)
(580 -1.24194e-12 0)
(580 1.2527e-13 0)
(580 9.66851e-13 0)
(580 1.32473e-12 0)
(580 1.20136e-12 0)
(580 1.35068e-12 0)
(580 1.54493e-12 0)
(580 1.53885e-12 0)
(580 1.51405e-12 0)
(580 1.75207e-12 0)
(580 1.80191e-12 0)
(580 1.96686e-12 0)
(580 1.94988e-12 0)
(580 1.84092e-12 0)
(580 1.62624e-12 0)
(580 1.64241e-12 0)
(580 1.61189e-12 0)
(580 1.50379e-12 0)
(580 1.32882e-12 0)
(580 1.17509e-12 0)
(580 8.84959e-13 0)
(580 5.80273e-13 0)
(580 5.54474e-13 0)
(580 5.8019e-13 0)
(580 6.47865e-13 0)
(580 6.12476e-13 0)
(580 6.16734e-13 0)
(580 6.44238e-13 0)
(580 7.61038e-13 0)
(580 9.48881e-13 0)
(580 1.11591e-12 0)
(580 1.10871e-12 0)
(580 9.77455e-13 0)
(580 1.38641e-12 0)
(580 1.6316e-12 0)
(580 1.90529e-12 0)
(580 2.29545e-12 0)
(580 2.59791e-12 0)
(580 2.63332e-12 0)
(580 2.69545e-12 0)
(580 2.7016e-12 0)
(580 2.63842e-12 0)
(580 2.26014e-12 0)
(580 2.19965e-12 0)
(580 2.27461e-12 0)
(580 2.45336e-12 0)
(580 2.48838e-12 0)
(580 2.56335e-12 0)
(580 -1.85503e-12 0)
(580 -1.87918e-12 0)
(580 -2.1364e-12 0)
(580 -2.2376e-12 0)
(580 -2.48907e-12 0)
(580 -2.73184e-12 0)
(580 -2.75384e-12 0)
(580 -2.64653e-12 0)
(580 -2.47207e-12 0)
(580 -2.40016e-12 0)
(580 -2.44674e-12 0)
(580 -2.59139e-12 0)
(580 -2.52139e-12 0)
(580 -2.3032e-12 0)
(580 -2.36132e-12 0)
(580 -2.18004e-12 0)
(580 -1.81233e-12 0)
(580 -8.93152e-13 0)
(580 -8.15198e-13 0)
(580 -4.07679e-13 0)
(580 -1.35685e-14 0)
(580 9.50735e-13 0)
(580 1.65223e-12 0)
(580 1.64942e-12 0)
(580 1.28417e-12 0)
(580 7.70256e-13 0)
(580 7.62026e-13 0)
(580 9.94054e-13 0)
(580 1.34358e-12 0)
(580 1.72806e-12 0)
(580 2.17042e-12 0)
(580 2.36235e-12 0)
(580 2.36233e-12 0)
(580 2.35404e-12 0)
(580 2.43219e-12 0)
(580 2.42178e-12 0)
(580 2.28415e-12 0)
(580 2.10896e-12 0)
(580 1.7164e-12 0)
(580 1.43833e-12 0)
(580 1.39883e-12 0)
(580 1.44865e-12 0)
(580 1.46908e-12 0)
(580 1.57855e-12 0)
(580 1.67471e-12 0)
(580 1.79664e-12 0)
(580 2.02771e-12 0)
(580 2.35473e-12 0)
(580 2.41062e-12 0)
(580 2.4671e-12 0)
(580 2.56356e-12 0)
(580 2.60848e-12 0)
(580 2.56553e-12 0)
(580 2.48814e-12 0)
(580 2.48512e-12 0)
(580 2.70486e-12 0)
(580 2.91878e-12 0)
(580 2.89096e-12 0)
(580 2.73656e-12 0)