/*--------------------------------*- C++ -*----------------------------------*\
| =========                 |                                                 |
| \\      /  F ield         | OpenFOAM: The Open Source CFD Toolbox           |
|  \\    /   O peration     | Version:  2306                                  |
|   \\  /    A nd           | Website:  www.openfoam.com                      |
|    \\/     M anipulation  |                                                 |
\*---------------------------------------------------------------------------*/
FoamFile
{
    version     2.0;
    format      ascii;
    arch        "LSB;label=32;scalar=64";
    class       volVectorField;
    location    "9e-05";
    object      U;
}
// * * * * * * * * * * * * * * * * * * * * * * * * * * * * * * * * * * * * * //

dimensions      [0 1 -1 0 0 0 0];

internalField   nonuniform List<vector> 
8983
(
(580 7.5912e-14 0)
(580 1.13068e-13 0)
(580 8.6287e-14 0)
(580 5.31115e-14 0)
(580 7.8169e-14 0)
(580 1.58257e-13 0)
(580 1.12195e-13 0)
(580 7.9624e-14 0)
(580 -3.10657e-14 0)
(580 -1.85268e-14 0)
(580 -2.28225e-14 0)
(580 -2.0261e-14 0)
(580 -6.43409e-14 0)
(580 -2.34456e-14 0)
(580 -7.18927e-14 0)
(580 -1.59992e-13 0)
(580 -2.0729e-13 0)
(580 -2.23145e-13 0)
(580 -3.67009e-13 0)
(580 -3.88706e-13 0)
(580 -5.27705e-13 0)
(580 -5.10397e-13 0)
(580 -6.21064e-13 0)
(580 -6.14036e-13 0)
(580 -6.33835e-13 0)
(580 -5.15845e-13 0)
(580 -4.13698e-13 0)
(580 -4.10223e-13 0)
(580 -4.03682e-13 0)
(580 -4.5629e-13 0)
(580 -4.28831e-13 0)
(580 -4.33749e-13 0)
(580 -5.5236e-13 0)
(580 -7.29552e-13 0)
(580 -7.21667e-13 0)
(580 -6.4302e-13 0)
(580 -5.22393e-13 0)
(580 -4.63881e-13 0)
(580 -2.6493e-13 0)
(580 -3.19583e-14 0)
(580 -3.19518e-14 0)
(580 -3.09881e-13 0)
(580 -4.09819e-13 0)
(580 7.54609e-14 0)
(580 7.53808e-14 0)
(580 7.63304e-14 0)
(580 1.30892e-13 0)
(580 -2.47037e-14 0)
(580 -2.27964e-14 0)
(580 -1.1508e-13 0)
(580 -9.45494e-14 0)
(580 -1.45702e-13 0)
(580 -1.04826e-13 0)
(580 -1.27294e-13 0)
(580 -1.56624e-13 0)
(580 -1.17734e-13 0)
(580 -4.63153e-14 0)
(580 -8.04162e-14 0)
(580 -1.13376e-13 0)
(580 -1.47642e-13 0)
(580 -1.24494e-13 0)
(580 -2.37957e-14 0)
(580 -9.02415e-14 0)
(580 -1.44464e-13 0)
(580 -3.08665e-13 0)
(580 -2.95495e-13 0)
(580 -2.50484e-13 0)
(580 -2.02616e-13 0)
(580 -2.51727e-13 0)
(580 -2.90843e-13 0)
(580 -3.48981e-13 0)
(580 -3.09157e-13 0)
(580 -2.79827e-13 0)
(580 -2.43512e-13 0)
(580 -2.83068e-13 0)
(580 -3.70262e-13 0)
(580 -4.17645e-13 0)
(580 -4.71505e-13 0)
(580 -4.97067e-13 0)
(580 -4.9043e-13 0)
(580 -4.8903e-13 0)
(580 -4.60119e-13 0)
(580 -4.15315e-13 0)
(580 -3.75893e-13 0)
(580 -4.00942e-13 0)
(580 -3.16198e-13 0)
(580 -2.47072e-13 0)
(580 -1.35437e-13 0)
(580 -1.74854e-13 0)
(580 -2.41787e-13 0)
(580 -2.36128e-13 0)
(580 -1.59584e-13 0)
(580 -2.13919e-13 0)
(580 -2.1566e-13 0)
(580 -7.57682e-14 0)
(580 -1.59906e-14 0)
(580 2.20752e-13 0)
(580 2.72964e-13 0)
(580 2.97069e-13 0)
(580 2.57018e-13 0)
(580 1.30503e-13 0)
(580 6.27072e-14 0)
(580 9.56553e-14 0)
(580 2.9257e-13 0)
(580 5.48519e-13 0)
(580 7.92379e-13 0)
(580 1.13717e-12 0)
(580 1.42149e-12 0)
(580 1.52181e-12 0)
(580 1.64779e-12 0)
(580 1.73429e-12 0)
(580 1.64192e-12 0)
(580 1.40834e-12 0)
(580 1.22923e-12 0)
(580 1.31804e-12 0)
(580 1.3129e-12 0)
(580 1.30826e-12 0)
(580 1.30268e-12 0)
(580 1.19008e-12 0)
(580 1.27753e-12 0)
(580 1.30192e-12 0)
(580 1.1938e-12 0)
(580 1.05108e-12 0)
(580 -9.94875e-14 0)
(580 -1.92932e-13 0)
(580 -1.07966e-13 0)
(580 -3.23147e-14 0)
(580 -3.3219e-14 0)
(580 -1.79792e-13 0)
(580 -2.44101e-13 0)
(580 -1.71248e-13 0)
(580 -1.63561e-13 0)
(580 -2.85344e-13 0)
(580 -4.26829e-13 0)
(580 -4.05959e-13 0)
(580 -2.57238e-13 0)
(580 -1.79417e-13 0)
(580 -1.3102e-13 0)
(580 -1.74936e-14 0)
(580 -2.46707e-14 0)
(580 -4.19763e-14 0)
(580 6.06772e-14 0)
(580 -1.06744e-14 0)
(580 -5.4243e-14 0)
(580 -1.27564e-13 0)
(580 -3.82787e-14 0)
(580 -3.10067e-14 0)
(580 -2.09977e-14 0)
(580 -9.27486e-14 0)
(580 -1.51365e-13 0)
(580 -1.76449e-13 0)
(580 -1.43046e-13 0)
(580 -1.10718e-13 0)
(580 -1.72565e-13 0)
(580 -2.89461e-13 0)
(580 -3.18662e-13 0)
(580 -3.93629e-13 0)
(580 -5.09776e-13 0)
(580 -5.49691e-13 0)
(580 -6.25555e-13 0)
(580 -7.93611e-13 0)
(580 -7.7767e-13 0)
(580 -8.28248e-13 0)
(580 -6.70732e-13 0)
(580 -5.65169e-13 0)
(580 -3.34236e-13 0)
(580 -1.87668e-13 0)
(580 -1.06833e-13 0)
(580 -9.94741e-14 0)
(580 -4.71676e-14 0)
(580 -2.88351e-14 0)
(580 -1.496e-13 0)
(580 -2.40253e-13 0)
(580 -2.78398e-13 0)
(580 -1.32276e-13 0)
(580 -2.106e-14 0)
(580 1.37885e-13 0)
(580 2.61438e-13 0)
(580 6.10327e-13 0)
(580 8.04681e-13 0)
(580 9.75347e-13 0)
(580 1.21548e-12 0)
(580 1.25955e-12 0)
(580 1.16562e-12 0)
(580 1.10881e-12 0)
(580 9.06983e-13 0)
(580 7.19017e-13 0)
(580 5.06143e-13 0)
(580 3.4044e-13 0)
(580 4.62182e-13 0)
(580 5.96303e-13 0)
(580 8.61451e-13 0)
(580 4.83889e-13 0)
(580 2.68266e-13 0)
(580 1.64486e-13 0)
(580 2.01239e-13 0)
(580 1.93236e-13 0)
(580 1.86607e-13 0)
(580 2.34368e-13 0)
(580 1.96781e-13 0)
(580 1.09937e-13 0)
(580 2.26756e-14 0)
(580 -8.46156e-14 0)
(580 -5.03647e-14 0)
(580 -1.29795e-13 0)
(580 -8.3017e-14 0)
(580 -5.71688e-14 0)
(580 4.08437e-14 0)
(580 9.81551e-14 0)
(580 1.67243e-13 0)
(580 2.09416e-13 0)
(580 1.60441e-13 0)
(580 1.29682e-13 0)
(580 1.41624e-13 0)
(580 3.43066e-13 0)
(580 3.99986e-13 0)
(580 4.86195e-13 0)
(580 6.77553e-13 0)
(580 8.53244e-13 0)
(580 9.27237e-13 0)
(580 7.27254e-13 0)
(580 5.26911e-13 0)
(580 2.53921e-13 0)
(580 -9.64306e-14 0)
(580 -1.04821e-13 0)
(580 -2.28705e-13 0)
(580 -1.43759e-13 0)
(580 4.38167e-14 0)
(580 2.161e-13 0)
(580 2.31163e-13 0)
(580 2.4e-13 0)
(580 2.1505e-13 0)
(580 3.30321e-13 0)
(580 3.85346e-13 0)
(580 1.35223e-13 0)
(580 -2.22838e-13 0)
(580 -5.05366e-13 0)
(580 -8.2168e-13 0)
(580 -9.27496e-13 0)
(580 -1.22756e-12 0)
(580 -1.39943e-12 0)
(580 -1.40502e-12 0)
(580 -1.237e-12 0)
(580 -7.66577e-13 0)
(580 -4.64711e-14 0)
(580 7.52047e-14 0)
(580 2.10232e-13 0)
(580 4.93353e-13 0)
(580 4.97896e-13 0)
(580 3.39772e-13 0)
(580 -4.63118e-14 0)
(580 -1.72675e-13 0)
(580 -2.96665e-13 0)
(580 -1.24119e-13 0)
(580 -3.00715e-13 0)
(580 1.3665e-13 0)
(580 6.26429e-13 0)
(580 1.19912e-12 0)
(580 1.5137e-12 0)
(580 1.81529e-12 0)
(580 1.76596e-12 0)
(580 1.74493e-12 0)
(580 1.75442e-12 0)
(580 1.69372e-12 0)
(580 1.61104e-12 0)
(580 1.02591e-12 0)
(580 4.91756e-13 0)
(580 3.56424e-14 0)
(580 -3.64046e-13 0)
(580 -4.46989e-13 0)
(580 -7.92191e-13 0)
(580 -9.5842e-13 0)
(580 -8.84922e-13 0)
(580 -6.94691e-13 0)
(580 -4.72802e-13 0)
(580 -1.99805e-13 0)
(580 -1.64814e-13 0)
(580 -2.01488e-13 0)
(580 -2.50509e-13 0)
(580 -9.30945e-14 0)
(580 -5.36808e-13 0)
(580 -1.21166e-12 0)
(580 -1.58932e-12 0)
(580 -6.71172e-15 0)
(580 4.87574e-14 0)
(580 7.9635e-14 0)
(580 1.9241e-13 0)
(580 1.66123e-13 0)
(580 3.69547e-13 0)
(580 3.74797e-13 0)
(580 2.8038e-13 0)
(580 3.12325e-13 0)
(580 3.90903e-13 0)
(580 6.79622e-13 0)
(580 7.22933e-13 0)
(580 6.69385e-13 0)
(580 6.77419e-13 0)
(580 7.55776e-13 0)
(580 8.94243e-13 0)
(580 8.6152e-13 0)
(580 7.54528e-13 0)
(580 7.10709e-13 0)
(580 4.79401e-13 0)
(580 5.39412e-13 0)
(580 6.54497e-13 0)
(580 1.03233e-13 0)
(580 -1.58529e-13 0)
(580 -8.18219e-14 0)
(580 -1.20142e-13 0)
(580 4.57232e-14 0)
(580 3.8175e-13 0)
(580 2.97727e-13 0)
(580 -1.58402e-14 0)
(580 -1.19327e-13 0)
(580 -1.81017e-13 0)
(580 -2.79788e-13 0)
(580 -4.17597e-13 0)
(580 -5.04139e-13 0)
(580 -8.72585e-13 0)
(580 -9.96289e-13 0)
(580 -9.70559e-13 0)
(580 -1.1894e-12 0)
(580 -8.7481e-13 0)
(580 -5.92836e-13 0)
(580 -4.88176e-13 0)
(580 -3.45309e-13 0)
(580 2.24412e-13 0)
(580 4.10541e-13 0)
(580 2.13999e-13 0)
(580 1.14423e-13 0)
(580 -1.62335e-14 0)
(580 1.89513e-13 0)
(580 4.49594e-13 0)
(580 3.55744e-13 0)
(580 3.9474e-13 0)
(580 6.17902e-13 0)
(580 6.7076e-13 0)
(580 7.7982e-13 0)
(580 1.05222e-12 0)
(580 1.24074e-12 0)
(580 1.17567e-12 0)
(580 1.08356e-12 0)
(580 7.58875e-13 0)
(580 5.57202e-14 0)
(580 3.22093e-13 0)
(580 2.97179e-13 0)
(580 -3.77773e-13 0)
(580 -8.99803e-13 0)
(580 -1.12159e-12 0)
(580 -1.46634e-12 0)
(580 -1.98394e-12 0)
(580 -2.23174e-12 0)
(580 -1.90679e-12 0)
(580 -1.61477e-12 0)
(580 -1.57275e-12 0)
(580 -1.33037e-12 0)
(580 -8.89695e-13 0)
(580 -1.06531e-12 0)
(580 -1.35345e-12 0)
(580 -1.0548e-12 0)
(580 -1.01037e-12 0)
(580 -1.15981e-12 0)
(580 -1.26953e-12 0)
(580 -5.01558e-14 0)
(580 -3.25171e-14 0)
(580 -3.03442e-14 0)
(580 3.79734e-15 0)
(580 7.68076e-14 0)
(580 2.43999e-13 0)
(580 3.57177e-13 0)
(580 4.01555e-13 0)
(580 4.57239e-13 0)
(580 2.74084e-13 0)
(580 4.00498e-13 0)
(580 4.15963e-13 0)
(580 1.71915e-13 0)
(580 2.86e-14 0)
(580 -1.07964e-13 0)
(580 -2.51227e-13 0)
(580 -3.5355e-13 0)
(580 -1.09011e-13 0)
(580 3.51949e-13 0)
(580 5.50172e-13 0)
(580 8.79092e-13 0)
(580 1.05628e-12 0)
(580 6.80658e-13 0)
(580 3.95089e-13 0)
(580 -4.17996e-13 0)
(580 -7.71795e-13 0)
(580 -8.95992e-13 0)
(580 -6.45032e-13 0)
(580 -8.60264e-13 0)
(580 -1.07239e-12 0)
(580 -1.13736e-12 0)
(580 -1.13639e-12 0)
(580 -6.94115e-13 0)
(580 -5.53578e-13 0)
(580 -2.86397e-13 0)
(580 -4.44355e-13 0)
(580 -3.67432e-13 0)
(580 4.12712e-13 0)
(580 6.59165e-13 0)
(580 3.278e-13 0)
(580 2.01817e-13 0)
(580 -1.38175e-13 0)
(580 -5.08887e-13 0)
(580 -4.56014e-13 0)
(580 -4.53773e-13 0)
(580 9.62253e-15 0)
(580 2.27514e-13 0)
(580 7.65644e-13 0)
(580 1.03633e-12 0)
(580 1.11501e-12 0)
(580 1.0965e-12 0)
(580 1.37053e-12 0)
(580 8.36548e-13 0)
(580 7.15212e-13 0)
(580 4.27382e-13 0)
(580 -1.48008e-15 0)
(580 -1.37893e-13 0)
(580 -4.22354e-13 0)
(580 -9.09012e-13 0)
(580 -1.79848e-12 0)
(580 -2.15408e-12 0)
(580 -2.19755e-12 0)
(580 -2.08559e-12 0)
(580 -1.42656e-12 0)
(580 -6.45748e-13 0)
(580 -2.70907e-13 0)
(580 -6.3307e-14 0)
(580 -3.09449e-13 0)
(580 -8.15853e-13 0)
(580 -1.37034e-12 0)
(580 -1.85832e-12 0)
(580 -2.38857e-12 0)
(580 -2.79659e-12 0)
(580 -2.8761e-12 0)
(580 -2.98849e-12 0)
(580 -3.07563e-12 0)
(580 -2.95154e-12 0)
(580 -2.69302e-12 0)
(580 -2.12596e-12 0)
(580 -1.91088e-12 0)
(580 8.59921e-14 0)
(580 9.95792e-14 0)
(580 3.47277e-14 0)
(580 -1.10216e-13 0)
(580 -4.71485e-14 0)
(580 -1.00465e-13 0)
(580 -1.27469e-14 0)
(580 -2.93596e-14 0)
(580 -3.29964e-14 0)
(580 -1.41144e-13 0)
(580 -3.40249e-13 0)
(580 -5.25128e-13 0)
(580 -4.30145e-13 0)
(580 -3.44647e-13 0)
(580 -3.92649e-13 0)
(580 -4.32154e-13 0)
(580 -3.53794e-13 0)
(580 -6.88668e-14 0)
(580 8.19398e-14 0)
(580 2.75466e-13 0)
(580 4.8778e-13 0)
(580 5.75849e-13 0)
(580 8.04256e-13 0)
(580 8.61067e-13 0)
(580 3.99308e-13 0)
(580 8.98525e-15 0)
(580 -8.60777e-13 0)
(580 -1.56843e-12 0)
(580 -1.55003e-12 0)
(580 -1.4254e-12 0)
(580 -1.34315e-12 0)
(580 -1.14566e-12 0)
(580 -7.40601e-13 0)
(580 -3.66487e-13 0)
(580 1.02511e-13 0)
(580 3.29434e-13 0)
(580 7.26486e-13 0)
(580 9.22277e-13 0)
(580 1.09245e-12 0)
(580 8.27496e-13 0)
(580 5.28226e-13 0)
(580 1.97495e-13 0)
(580 5.95082e-14 0)
(580 -8.85464e-14 0)
(580 -1.20462e-14 0)
(580 3.82699e-13 0)
(580 7.27372e-13 0)
(580 1.22614e-12 0)
(580 1.56627e-12 0)
(580 1.58881e-12 0)
(580 1.40406e-12 0)
(580 9.83055e-13 0)
(580 3.54375e-13 0)
(580 2.13513e-13 0)
(580 -4.57215e-13 0)
(580 -1.52145e-12 0)
(580 -1.962e-12 0)
(580 -2.35065e-12 0)
(580 -2.72262e-12 0)
(580 -3.09575e-12 0)
(580 -3.20135e-12 0)
(580 -3.25384e-12 0)
(580 -3.18096e-12 0)
(580 -2.962e-12 0)
(580 -2.15908e-12 0)
(580 -1.4384e-12 0)
(580 -1.42454e-12 0)
(580 -1.40803e-12 0)
(580 -1.43347e-12 0)
(580 -1.64311e-12 0)
(580 -1.8744e-12 0)
(580 -2.30377e-12 0)
(580 -2.79144e-12 0)
(580 -3.0542e-12 0)
(580 -3.16943e-12 0)
(580 -3.17055e-12 0)
(580 -3.1295e-12 0)
(580 -2.97623e-12 0)
(580 -2.80834e-12 0)
(580 -2.49515e-12 0)
(580 6.93134e-14 0)
(580 1.7387e-13 0)
(580 2.65716e-13 0)
(580 2.10846e-13 0)
(580 -4.0828e-14 0)
(580 -1.21097e-13 0)
(580 -4.03035e-13 0)
(580 -4.52031e-13 0)
(580 -5.7334e-13 0)
(580 -6.13163e-13 0)
(580 -7.04561e-13 0)
(580 -8.17994e-13 0)
(580 -7.95421e-13 0)
(580 -7.63101e-13 0)
(580 -5.01755e-13 0)
(580 -2.35166e-13 0)
(580 -7.62381e-14 0)
(580 6.45814e-14 0)
(580 1.31363e-13 0)
(580 2.19384e-13 0)
(580 2.32875e-13 0)
(580 3.74573e-13 0)
(580 7.07775e-13 0)
(580 8.16135e-13 0)
(580 6.64838e-13 0)
(580 5.35576e-13 0)
(580 2.41292e-13 0)
(580 -5.63062e-13 0)
(580 -9.08009e-13 0)
(580 -1.02359e-12 0)
(580 -1.13218e-12 0)
(580 -9.33679e-13 0)
(580 -6.8746e-13 0)
(580 -4.20766e-13 0)
(580 3.69224e-14 0)
(580 6.41049e-13 0)
(580 8.80319e-13 0)
(580 1.04203e-12 0)
(580 1.14751e-12 0)
(580 1.14904e-12 0)
(580 1.14803e-12 0)
(580 1.20634e-12 0)
(580 1.33513e-12 0)
(580 1.06594e-12 0)
(580 9.71538e-13 0)
(580 8.27115e-13 0)
(580 7.01413e-13 0)
(580 4.73647e-13 0)
(580 6.05755e-13 0)
(580 4.80914e-13 0)
(580 2.20015e-13 0)
(580 -5.71919e-15 0)
(580 -4.05774e-13 0)
(580 -8.1329e-13 0)
(580 -1.94327e-12 0)
(580 -2.57301e-12 0)
(580 -2.91172e-12 0)
(580 -3.33077e-12 0)
(580 -3.69584e-12 0)
(580 -3.95628e-12 0)
(580 -4.09863e-12 0)
(580 -4.14936e-12 0)
(580 -3.94864e-12 0)
(580 -3.88135e-12 0)
(580 -3.84019e-12 0)
(580 -3.35728e-12 0)
(580 -3.58915e-12 0)
(580 -3.26501e-12 0)
(580 -2.8621e-12 0)
(580 -2.76389e-12 0)
(580 -2.59558e-12 0)
(580 -2.70303e-12 0)
(580 -2.70979e-12 0)
(580 -3.03857e-12 0)
(580 -3.49433e-12 0)
(580 -3.30378e-12 0)
(580 -3.10793e-12 0)
(580 -3.04307e-12 0)
(580 -2.76671e-12 0)
(580 -2.21069e-12 0)
(580 -2.99275e-14 0)
(580 1.09867e-15 0)
(580 -5.47227e-14 0)
(580 -2.38872e-14 0)
(580 -9.70735e-14 0)
(580 -2.3161e-13 0)
(580 -2.64843e-13 0)
(580 -1.60542e-13 0)
(580 -2.95632e-13 0)
(580 -2.61423e-13 0)
(580 -2.71021e-13 0)
(580 -3.48559e-13 0)
(580 -3.96851e-13 0)
(580 -5.71779e-13 0)
(580 -6.27236e-13 0)
(580 -7.68392e-13 0)
(580 -7.63596e-13 0)
(580 -7.25438e-13 0)
(580 -7.97677e-13 0)
(580 -6.45515e-13 0)
(580 -6.6033e-13 0)
(580 -4.48914e-13 0)
(580 -3.4877e-13 0)
(580 -5.48213e-13 0)
(580 5.82123e-14 0)
(580 1.90036e-13 0)
(580 5.47268e-14 0)
(580 -8.8931e-14 0)
(580 -4.34918e-13 0)
(580 -5.87456e-13 0)
(580 -6.28196e-13 0)
(580 -8.10181e-13 0)
(580 -4.62462e-13 0)
(580 -4.96649e-14 0)
(580 3.35505e-13 0)
(580 4.91457e-13 0)
(580 7.54645e-13 0)
(580 8.08001e-13 0)
(580 7.23891e-13 0)
(580 6.1107e-13 0)
(580 6.70416e-13 0)
(580 7.24697e-13 0)
(580 5.31414e-13 0)
(580 2.14833e-13 0)
(580 -1.41377e-13 0)
(580 -7.52095e-13 0)
(580 -7.60747e-13 0)
(580 -6.32662e-13 0)
(580 -6.6305e-13 0)
(580 -7.23902e-13 0)
(580 -1.43892e-14 0)
(580 5.28576e-14 0)
(580 -2.80713e-13 0)
(580 -1.24717e-12 0)
(580 -1.44966e-12 0)
(580 -1.42294e-12 0)
(580 -1.76898e-12 0)
(580 -2.10707e-12 0)
(580 -2.55121e-12 0)
(580 -3.12585e-12 0)
(580 -3.27681e-12 0)
(580 -3.42212e-12 0)
(580 -3.80971e-12 0)
(580 -4.04673e-12 0)
(580 -4.45512e-12 0)
(580 -4.8687e-12 0)
(580 -4.54701e-12 0)
(580 -3.82533e-12 0)
(580 -3.25919e-12 0)
(580 -3.0756e-12 0)
(580 -2.55137e-12 0)
(580 -2.10847e-12 0)
(580 -1.74074e-12 0)
(580 -1.88862e-12 0)
(580 -1.75074e-12 0)
(580 -1.83446e-12 0)
(580 -1.84108e-12 0)
(580 -1.48428e-12 0)
(580 -1.64871e-12 0)
(580 -2.10214e-12 0)
(580 -1.14672e-14 0)
(580 -3.6322e-14 0)
(580 -1.86297e-13 0)
(580 -2.13714e-13 0)
(580 -1.27343e-13 0)
(580 -4.58368e-14 0)
(580 8.62381e-14 0)
(580 1.59588e-13 0)
(580 3.09022e-13 0)
(580 2.82133e-13 0)
(580 2.53845e-13 0)
(580 1.58694e-13 0)
(580 6.20766e-14 0)
(580 -1.54079e-13 0)
(580 -5.77721e-13 0)
(580 -1.02873e-12 0)
(580 -1.13997e-12 0)
(580 -1.47361e-12 0)
(580 -1.71352e-12 0)
(580 -1.72322e-12 0)
(580 -1.47214e-12 0)
(580 -1.46791e-12 0)
(580 -1.55332e-12 0)
(580 -1.37589e-12 0)
(580 -4.56403e-13 0)
(580 -2.51177e-13 0)
(580 1.06592e-13 0)
(580 2.16852e-13 0)
(580 1.29724e-13 0)
(580 -9.34776e-14 0)
(580 3.05049e-13 0)
(580 3.52037e-13 0)
(580 6.69718e-13 0)
(580 1.11633e-12 0)
(580 1.37304e-12 0)
(580 1.12664e-12 0)
(580 1.0273e-12 0)
(580 8.15276e-13 0)
(580 3.72803e-13 0)
(580 -1.01561e-13 0)
(580 -1.34975e-13 0)
(580 -4.13418e-13 0)
(580 -6.45132e-13 0)
(580 -1.0023e-12 0)
(580 -1.30044e-12 0)
(580 -1.32699e-12 0)
(580 -1.30569e-12 0)
(580 -1.28383e-12 0)
(580 -1.54854e-12 0)
(580 -1.55262e-12 0)
(580 -1.2092e-12 0)
(580 -1.21714e-12 0)
(580 -1.75254e-12 0)
(580 -1.89797e-12 0)
(580 -1.90392e-12 0)
(580 -1.79765e-12 0)
(580 -1.9622e-12 0)
(580 -1.86611e-12 0)
(580 -1.95619e-12 0)
(580 -2.02266e-12 0)
(580 -2.1614e-12 0)
(580 -2.62626e-12 0)
(580 -3.14181e-12 0)
(580 -3.62189e-12 0)
(580 -3.97152e-12 0)
(580 -4.05986e-12 0)
(580 -3.9258e-12 0)
(580 -3.8952e-12 0)
(580 -3.90899e-12 0)
(580 -3.97413e-12 0)
(580 -3.96942e-12 0)
(580 -3.92089e-12 0)
(580 -3.48956e-12 0)
(580 -2.99599e-12 0)
(580 -2.38507e-12 0)
(580 -2.07824e-12 0)
(580 -1.27114e-12 0)
(580 -9.19838e-13 0)
(580 -9.71308e-13 0)
(580 -8.77454e-13 0)
(580 -5.40583e-14 0)
(580 -9.28102e-14 0)
(580 -3.01555e-13 0)
(580 -4.18837e-13 0)
(580 -3.84048e-13 0)
(580 -3.71209e-13 0)
(580 -4.76536e-13 0)
(580 -5.01772e-13 0)
(580 -2.90427e-13 0)
(580 -2.83444e-13 0)
(580 -3.23936e-13 0)
(580 -3.1321e-13 0)
(580 -3.84075e-13 0)
(580 -4.30736e-13 0)
(580 -4.85549e-13 0)
(580 -4.82775e-13 0)
(580 -7.23681e-13 0)
(580 -1.06824e-12 0)
(580 -1.07505e-12 0)
(580 -1.52801e-12 0)
(580 -1.58249e-12 0)
(580 -1.50061e-12 0)
(580 -1.264e-12 0)
(580 -9.09893e-13 0)
(580 -4.35473e-13 0)
(580 -3.00216e-15 0)
(580 4.8191e-13 0)
(580 6.63612e-13 0)
(580 7.50647e-13 0)
(580 1.07202e-12 0)
(580 1.44599e-12 0)
(580 1.46545e-12 0)
(580 1.47338e-12 0)
(580 1.34804e-12 0)
(580 1.12129e-12 0)
(580 8.49188e-13 0)
(580 2.37893e-13 0)
(580 -8.85259e-14 0)
(580 -1.66534e-13 0)
(580 -1.80004e-13 0)
(580 -2.14443e-13 0)
(580 -2.80017e-13 0)
(580 -3.64014e-13 0)
(580 -4.51165e-13 0)
(580 -7.36422e-13 0)
(580 -1.13573e-12 0)
(580 -1.39522e-12 0)
(580 -1.86631e-12 0)
(580 -2.57557e-12 0)
(580 -2.66774e-12 0)
(580 -2.69066e-12 0)
(580 -2.54809e-12 0)
(580 -2.39954e-12 0)
(580 -2.45874e-12 0)
(580 -2.4681e-12 0)
(580 -2.45974e-12 0)
(580 -2.39958e-12 0)
(580 -2.37145e-12 0)
(580 -2.08773e-12 0)
(580 -1.94466e-12 0)
(580 -1.94338e-12 0)
(580 -1.95577e-12 0)
(580 -2.14121e-12 0)
(580 -2.65542e-12 0)
(580 -2.9033e-12 0)
(580 -2.96984e-12 0)
(580 -2.78044e-12 0)
(580 -3.04982e-12 0)
(580 -3.22189e-12 0)
(580 -3.24349e-12 0)
(580 -3.59411e-12 0)
(580 -3.7533e-12 0)
(580 -3.58883e-12 0)
(580 -3.36159e-12 0)
(580 -3.05279e-12 0)
(580 -2.54856e-12 0)
(580 -2.22253e-12 0)
(580 -1.99769e-12 0)
(580 -1.66198e-12 0)
(580 -1.15762e-12 0)
(580 1.38682e-14 0)
(580 5.4846e-16 0)
(580 -4.96519e-14 0)
(580 3.40712e-16 0)
(580 -1.27051e-13 0)
(580 -3.03333e-13 0)
(580 -3.78839e-13 0)
(580 -4.68472e-13 0)
(580 -4.81399e-13 0)
(580 -3.19108e-13 0)
(580 -4.91405e-13 0)
(580 -6.43502e-13 0)
(580 -4.80431e-13 0)
(580 -5.29717e-13 0)
(580 -4.9155e-13 0)
(580 -3.82833e-13 0)
(580 -4.12607e-13 0)
(580 -3.06892e-13 0)
(580 -3.29043e-13 0)
(580 -3.29441e-13 0)
(580 -4.52843e-13 0)
(580 -4.63386e-13 0)
(580 -4.99767e-13 0)
(580 -6.45667e-13 0)
(580 -7.84939e-13 0)
(580 -9.10769e-13 0)
(580 -4.72889e-13 0)
(580 -5.17461e-14 0)
(580 3.59922e-13 0)
(580 1.15717e-12 0)
(580 1.22515e-12 0)
(580 1.0496e-12 0)
(580 6.2905e-13 0)
(580 3.83663e-13 0)
(580 -4.5558e-14 0)
(580 -2.67887e-13 0)
(580 -3.50485e-13 0)
(580 -3.94516e-13 0)
(580 -3.80402e-13 0)
(580 -3.75264e-13 0)
(580 -6.02977e-13 0)
(580 -7.81376e-13 0)
(580 -9.89702e-13 0)
(580 -1.07306e-12 0)
(580 -1.35806e-12 0)
(580 -1.77543e-12 0)
(580 -2.04666e-12 0)
(580 -2.25583e-12 0)
(580 -2.32275e-12 0)
(580 -2.61661e-12 0)
(580 -2.63989e-12 0)
(580 -2.61341e-12 0)
(580 -2.2829e-12 0)
(580 -2.16597e-12 0)
(580 -2.11056e-12 0)
(580 -1.88692e-12 0)
(580 -1.68582e-12 0)
(580 -1.73596e-12 0)
(580 -1.40924e-12 0)
(580 -1.45425e-12 0)
(580 -1.47675e-12 0)
(580 -1.48195e-12 0)
(580 -1.69527e-12 0)
(580 -1.89724e-12 0)
(580 -1.95618e-12 0)
(580 -1.97727e-12 0)
(580 -2.21534e-12 0)
(580 -2.33098e-12 0)
(580 -2.4306e-12 0)
(580 -2.5513e-12 0)
(580 -2.63443e-12 0)
(580 -2.7857e-12 0)
(580 -2.38196e-12 0)
(580 -2.12615e-12 0)
(580 -1.91197e-12 0)
(580 -1.89921e-12 0)
(580 -2.00615e-12 0)
(580 -1.83879e-12 0)
(580 -1.62048e-12 0)
(580 -1.31617e-12 0)
(580 3.35781e-14 0)
(580 1.54275e-13 0)
(580 2.9346e-13 0)
(580 6.18411e-13 0)
(580 7.28678e-13 0)
(580 7.17816e-13 0)
(580 7.77766e-13 0)
(580 7.3243e-13 0)
(580 5.25519e-13 0)
(580 5.30628e-13 0)
(580 2.3999e-13 0)
(580 1.59329e-13 0)
(580 1.28268e-13 0)
(580 5.33623e-14 0)
(580 9.85488e-14 0)
(580 1.19163e-13 0)
(580 3.36651e-13 0)
(580 5.36003e-13 0)
(580 6.39889e-13 0)
(580 8.49855e-13 0)
(580 1.00358e-12 0)
(580 6.45329e-13 0)
(580 3.31394e-13 0)
(580 -7.0661e-14 0)
(580 -6.38394e-13 0)
(580 -8.47404e-13 0)
(580 -7.43049e-13 0)
(580 -4.69214e-13 0)
(580 -1.72766e-13 0)
(580 1.52443e-13 0)
(580 2.77996e-13 0)
(580 2.92866e-13 0)
(580 -2.27126e-13 0)
(580 -5.29177e-13 0)
(580 -5.84101e-13 0)
(580 -4.49666e-13 0)
(580 -3.23226e-13 0)
(580 -3.32429e-13 0)
(580 -1.13565e-13 0)
(580 -3.29717e-13 0)
(580 -7.54058e-13 0)
(580 -1.05939e-12 0)
(580 -1.29505e-12 0)
(580 -1.50393e-12 0)
(580 -1.91761e-12 0)
(580 -2.07882e-12 0)
(580 -2.12189e-12 0)
(580 -1.94346e-12 0)
(580 -1.88224e-12 0)
(580 -1.93775e-12 0)
(580 -2.08448e-12 0)
(580 -2.2674e-12 0)
(580 -1.93794e-12 0)
(580 -1.64427e-12 0)
(580 -1.43351e-12 0)
(580 -1.16116e-12 0)
(580 -1.01563e-12 0)
(580 -8.52875e-13 0)
(580 -9.70247e-13 0)
(580 -9.86604e-13 0)
(580 -9.23579e-13 0)
(580 -1.0406e-12 0)
(580 -1.29838e-12 0)
(580 -1.11934e-12 0)
(580 -1.03227e-12 0)
(580 -1.05203e-12 0)
(580 -1.04844e-12 0)
(580 -1.15159e-12 0)
(580 -1.42603e-12 0)
(580 -1.57793e-12 0)
(580 -1.14308e-12 0)
(580 -9.22696e-13 0)
(580 -1.00645e-12 0)
(580 -1.01185e-12 0)
(580 -7.9449e-13 0)
(580 -6.96951e-13 0)
(580 -1.21048e-12 0)
(580 -1.27641e-12 0)
(580 -9.55336e-13 0)
(580 -3.86787e-13 0)
(580 -2.35711e-14 0)
(580 -9.5567e-14 0)
(580 -5.17755e-14 0)
(580 1.47353e-13 0)
(580 2.02737e-13 0)
(580 2.89061e-13 0)
(580 2.9529e-13 0)
(580 2.37301e-13 0)
(580 1.06403e-13 0)
(580 -4.19037e-14 0)
(580 -5.75639e-14 0)
(580 1.91571e-13 0)
(580 1.83853e-13 0)
(580 1.95484e-13 0)
(580 1.57925e-13 0)
(580 1.50895e-13 0)
(580 2.89429e-13 0)
(580 3.90443e-13 0)
(580 5.0408e-13 0)
(580 4.49406e-13 0)
(580 3.6021e-13 0)
(580 3.07795e-13 0)
(580 1.50667e-13 0)
(580 8.68424e-14 0)
(580 -6.82575e-14 0)
(580 -4.78473e-13 0)
(580 -7.50745e-13 0)
(580 -5.74771e-13 0)
(580 -4.40809e-13 0)
(580 -4.50982e-13 0)
(580 -6.1776e-13 0)
(580 -5.2408e-13 0)
(580 -1.00558e-12 0)
(580 -1.45261e-12 0)
(580 -1.53188e-12 0)
(580 -1.42955e-12 0)
(580 -1.33437e-12 0)
(580 -1.23789e-12 0)
(580 -1.12432e-12 0)
(580 -1.36184e-12 0)
(580 -1.61288e-12 0)
(580 -1.692e-12 0)
(580 -1.80894e-12 0)
(580 -1.88875e-12 0)
(580 -1.98752e-12 0)
(580 -2.04847e-12 0)
(580 -1.86204e-12 0)
(580 -1.49758e-12 0)
(580 -1.55987e-12 0)
(580 -1.51178e-12 0)
(580 -1.52707e-12 0)
(580 -1.6467e-12 0)
(580 -1.6901e-12 0)
(580 -1.36003e-12 0)
(580 -1.24519e-12 0)
(580 -1.161e-12 0)
(580 -1.19092e-12 0)
(580 -1.14209e-12 0)
(580 -1.10472e-12 0)
(580 -8.83363e-13 0)
(580 -7.57282e-13 0)
(580 -6.84877e-13 0)
(580 -6.32579e-13 0)
(580 -6.21955e-13 0)
(580 -2.38612e-13 0)
(580 -1.67171e-13 0)
(580 -7.12806e-14 0)
(580 -1.7757e-13 0)
(580 -3.84426e-13 0)
(580 -3.31248e-13 0)
(580 -1.13323e-13 0)
(580 -1.66362e-13 0)
(580 -6.10807e-13 0)
(580 -6.22072e-13 0)
(580 -9.1255e-13 0)
(580 -1.06285e-12 0)
(580 -1.03016e-12 0)
(580 -1.05399e-12 0)
(580 -9.55619e-13 0)
(580 -7.19017e-13 0)
(580 -7.16039e-14 0)
(580 -8.41363e-14 0)
(580 -1.19044e-13 0)
(580 -3.13653e-13 0)
(580 -4.28142e-13 0)
(580 -5.13662e-13 0)
(580 -6.71867e-13 0)
(580 -7.84363e-13 0)
(580 -9.66069e-13 0)
(580 -9.19911e-13 0)
(580 -7.22943e-13 0)
(580 -4.22951e-13 0)
(580 -2.89246e-13 0)
(580 -1.63704e-13 0)
(580 -1.75034e-13 0)
(580 -1.51111e-13 0)
(580 -1.44665e-13 0)
(580 -1.43141e-13 0)
(580 -6.35444e-14 0)
(580 -2.57018e-13 0)
(580 -2.29253e-13 0)
(580 -2.01303e-13 0)
(580 -1.06779e-13 0)
(580 -3.74693e-14 0)
(580 -8.91585e-14 0)
(580 -2.04937e-13 0)
(580 -1.30609e-13 0)
(580 -3.27129e-13 0)
(580 -6.4642e-13 0)
(580 -8.22156e-13 0)
(580 -1.34946e-12 0)
(580 -1.61885e-12 0)
(580 -1.66224e-12 0)
(580 -1.71688e-12 0)
(580 -1.89348e-12 0)
(580 -1.9646e-12 0)
(580 -2.03197e-12 0)
(580 -2.18431e-12 0)
(580 -2.15585e-12 0)
(580 -2.29575e-12 0)
(580 -2.76935e-12 0)
(580 -2.73281e-12 0)
(580 -2.67882e-12 0)
(580 -2.68851e-12 0)
(580 -2.26794e-12 0)
(580 -1.52779e-12 0)
(580 -1.40825e-12 0)
(580 -1.5498e-12 0)
(580 -1.76663e-12 0)
(580 -1.87999e-12 0)
(580 -1.91313e-12 0)
(580 -1.83275e-12 0)
(580 -1.60562e-12 0)
(580 -9.16215e-13 0)
(580 -7.48804e-13 0)
(580 -1.05488e-12 0)
(580 -9.945e-13 0)
(580 -8.33033e-13 0)
(580 -4.94939e-13 0)
(580 -3.42206e-13 0)
(580 -2.45067e-13 0)
(580 -7.43453e-14 0)
(580 2.06882e-13 0)
(580 7.11311e-14 0)
(580 -3.56889e-13 0)
(580 -1.59392e-13 0)
(580 -1.01102e-13 0)
(580 6.93561e-15 0)
(580 3.0408e-13 0)
(580 4.77176e-13 0)
(580 1.32568e-13 0)
(580 -1.07323e-13 0)
(580 -1.42119e-13 0)
(580 -3.56786e-13 0)
(580 -5.54797e-13 0)
(580 -8.38238e-13 0)
(580 -7.87529e-13 0)
(580 -1.07313e-12 0)
(580 -1.34235e-12 0)
(580 -1.42029e-12 0)
(580 1.73471e-14 0)
(580 9.42055e-14 0)
(580 8.96895e-14 0)
(580 -5.31792e-14 0)
(580 -9.34473e-14 0)
(580 -1.37417e-13 0)
(580 -1.62041e-13 0)
(580 -2.70397e-13 0)
(580 -3.08873e-13 0)
(580 -3.44589e-13 0)
(580 -4.17172e-13 0)
(580 -3.48915e-13 0)
(580 -3.02764e-13 0)
(580 -3.15522e-13 0)
(580 -2.35795e-13 0)
(580 -3.56185e-13 0)
(580 -5.12875e-13 0)
(580 -7.57106e-13 0)
(580 -9.15704e-13 0)
(580 -9.57825e-13 0)
(580 -9.04386e-13 0)
(580 -9.55721e-13 0)
(580 -8.58171e-13 0)
(580 -9.65478e-13 0)
(580 -8.68073e-13 0)
(580 -8.00662e-13 0)
(580 -6.12084e-13 0)
(580 -1.06517e-12 0)
(580 -1.47773e-12 0)
(580 -1.72333e-12 0)
(580 -2.02979e-12 0)
(580 -2.07905e-12 0)
(580 -1.98164e-12 0)
(580 -1.97161e-12 0)
(580 -1.97042e-12 0)
(580 -1.98548e-12 0)
(580 -2.07355e-12 0)
(580 -2.32434e-12 0)
(580 -2.47238e-12 0)
(580 -2.1476e-12 0)
(580 -1.82533e-12 0)
(580 -1.65617e-12 0)
(580 -1.07745e-12 0)
(580 -1.04784e-12 0)
(580 -8.07464e-13 0)
(580 -7.57103e-13 0)
(580 -8.41607e-13 0)
(580 -9.01758e-13 0)
(580 -9.80425e-13 0)
(580 -8.92805e-13 0)
(580 -9.98482e-13 0)
(580 -1.07786e-12 0)
(580 -1.19537e-12 0)
(580 -1.36431e-12 0)
(580 -1.07617e-12 0)
(580 -9.12789e-13 0)
(580 -6.44921e-13 0)
(580 -5.00141e-13 0)
(580 -6.20928e-13 0)
(580 -5.44491e-13 0)
(580 -3.28423e-13 0)
(580 -8.84778e-14 0)
(580 1.19797e-14 0)
(580 1.77855e-13 0)
(580 1.97338e-13 0)
(580 2.14948e-13 0)
(580 1.77472e-13 0)
(580 2.08057e-13 0)
(580 3.35791e-13 0)
(580 4.73817e-13 0)
(580 2.19268e-13 0)
(580 1.92562e-13 0)
(580 2.02377e-13 0)
(580 1.04091e-13 0)
(580 1.09037e-13 0)
(580 -6.08519e-14 0)
(580 -3.06982e-13 0)
(580 -3.79795e-13 0)
(580 -1.19079e-12 0)
(580 -1.53354e-12 0)
(580 6.47531e-15 0)
(580 2.04624e-14 0)
(580 1.17486e-14 0)
(580 3.05997e-14 0)
(580 -2.40633e-14 0)
(580 -2.13751e-14 0)
(580 2.65995e-14 0)
(580 -5.12231e-14 0)
(580 4.26115e-14 0)
(580 1.11907e-13 0)
(580 1.59261e-13 0)
(580 -7.09479e-14 0)
(580 -1.23595e-13 0)
(580 -1.98471e-13 0)
(580 -1.11547e-13 0)
(580 -2.26868e-13 0)
(580 -3.30039e-13 0)
(580 -4.41246e-13 0)
(580 -6.22204e-13 0)
(580 -6.30966e-13 0)
(580 -5.4212e-13 0)
(580 -6.49094e-13 0)
(580 -6.25228e-13 0)
(580 -6.69139e-13 0)
(580 -6.04956e-13 0)
(580 -7.14696e-13 0)
(580 -8.45962e-13 0)
(580 -1.08217e-12 0)
(580 -1.19465e-12 0)
(580 -1.38159e-12 0)
(580 -1.38062e-12 0)
(580 -1.58634e-12 0)
(580 -1.81652e-12 0)
(580 -2.23604e-12 0)
(580 -2.3362e-12 0)
(580 -2.51638e-12 0)
(580 -2.48499e-12 0)
(580 -2.44449e-12 0)
(580 -2.37437e-12 0)
(580 -2.23204e-12 0)
(580 -2.04855e-12 0)
(580 -2.04915e-12 0)
(580 -1.97335e-12 0)
(580 -1.84926e-12 0)
(580 -1.66649e-12 0)
(580 -1.55634e-12 0)
(580 -1.50178e-12 0)
(580 -1.50279e-12 0)
(580 -1.40472e-12 0)
(580 -1.33778e-12 0)
(580 -1.43277e-12 0)
(580 -1.51394e-12 0)
(580 -1.74073e-12 0)
(580 -1.78617e-12 0)
(580 -1.76566e-12 0)
(580 -1.54612e-12 0)
(580 -1.37296e-12 0)
(580 -1.2825e-12 0)
(580 -1.24736e-12 0)
(580 -1.11666e-12 0)
(580 -9.4758e-13 0)
(580 -8.39911e-13 0)
(580 -6.08563e-13 0)
(580 -4.51489e-13 0)
(580 -9.5753e-14 0)
(580 9.34578e-14 0)
(580 1.21288e-13 0)
(580 1.66788e-13 0)
(580 4.17434e-13 0)
(580 3.8034e-13 0)
(580 4.72625e-13 0)
(580 3.25966e-13 0)
(580 2.715e-13 0)
(580 7.67783e-14 0)
(580 -5.18502e-14 0)
(580 -2.22381e-13 0)
(580 -4.40783e-13 0)
(580 -6.83683e-13 0)
(580 -9.88042e-13 0)
(580 -1.7053e-12 0)
(580 -1.89965e-13 0)
(580 -3.2458e-13 0)
(580 -4.00389e-13 0)
(580 -5.73688e-13 0)
(580 -6.85066e-13 0)
(580 -6.70149e-13 0)
(580 -6.90163e-13 0)
(580 -5.92831e-13 0)
(580 -5.69682e-13 0)
(580 -4.66278e-13 0)
(580 -4.42312e-13 0)
(580 -7.01262e-13 0)
(580 -6.78447e-13 0)
(580 -4.7536e-13 0)
(580 -3.25948e-13 0)
(580 -1.97924e-13 0)
(580 -1.95738e-13 0)
(580 -1.49778e-13 0)
(580 6.60523e-14 0)
(580 1.15922e-13 0)
(580 -4.67201e-14 0)
(580 -1.03036e-13 0)
(580 -1.56113e-13 0)
(580 -1.41242e-13 0)
(580 -2.63549e-13 0)
(580 -5.79267e-13 0)
(580 -6.26633e-13 0)
(580 -7.37361e-13 0)
(580 -8.56967e-13 0)
(580 -1.06173e-12 0)
(580 -1.14175e-12 0)
(580 -1.19929e-12 0)
(580 -1.27398e-12 0)
(580 -1.40001e-12 0)
(580 -1.46621e-12 0)
(580 -1.61459e-12 0)
(580 -1.69293e-12 0)
(580 -1.96314e-12 0)
(580 -2.24992e-12 0)
(580 -2.38645e-12 0)
(580 -2.53602e-12 0)
(580 -2.58723e-12 0)
(580 -2.59063e-12 0)
(580 -2.50107e-12 0)
(580 -2.56173e-12 0)
(580 -2.58605e-12 0)
(580 -2.55164e-12 0)
(580 -2.5258e-12 0)
(580 -2.45312e-12 0)
(580 -2.47127e-12 0)
(580 -2.38209e-12 0)
(580 -2.34749e-12 0)
(580 -2.32803e-12 0)
(580 -2.47213e-12 0)
(580 -2.64365e-12 0)
(580 -2.55891e-12 0)
(580 -2.62609e-12 0)
(580 -2.65456e-12 0)
(580 -2.643e-12 0)
(580 -2.39132e-12 0)
(580 -2.36451e-12 0)
(580 -2.16882e-12 0)
(580 -1.80081e-12 0)
(580 -1.65979e-12 0)
(580 -1.45365e-12 0)
(580 -1.27657e-12 0)
(580 -1.05582e-12 0)
(580 -8.06423e-13 0)
(580 -7.42127e-13 0)
(580 -5.86872e-13 0)
(580 -3.11019e-13 0)
(580 -8.08669e-14 0)
(580 6.17941e-14 0)
(580 2.71019e-13 0)
(580 1.6588e-13 0)
(580 1.18393e-13 0)
(580 2.91954e-14 0)
(580 -2.60096e-14 0)
(580 -1.72242e-13 0)
(580 -3.49839e-13 0)
(580 1.26906e-14 0)
(580 -7.93268e-14 0)
(580 -3.06423e-13 0)
(580 -4.43052e-13 0)
(580 -5.8e-13 0)
(580 -7.97473e-13 0)
(580 -8.22845e-13 0)
(580 -6.62728e-13 0)