/*--------------------------------*- C++ -*----------------------------------*\
| =========                 |                                                 |
| \\      /  F ield         | OpenFOAM: The Open Source CFD Toolbox           |
|  \\    /   O peration     | Version:  2306                                  |
|   \\  /    A nd           | Website:  www.openfoam.com                      |
|    \\/     M anipulation  |                                                 |
\*---------------------------------------------------------------------------*/
FoamFile
{
    version     2.0;
    format      ascii;
    arch        "LSB;label=32;scalar=64";
    class       volScalarField;
    location    "0.0001";
    object      p;
}
// * * * * * * * * * * * * * * * * * * * * * * * * * * * * * * * * * * * * * //

dimensions      [1 -1 -2 0 0 0 0];

internalField   nonuniform List<scalar> 
9032
(
109625
109454
109390
109420
109495
109586
109632
109633
109574
109514
109520
109543
109556
109545
109512
109462
109441
109455
109480
109501
109515
109536
109557
109578
109595
109601
109584
109556
109547
109561
109591
109639
109656
109639
109608
109562
109527
109522
109533
109557
109583
109602
109627
109649
109662
109663
109655
109636
109614
109603
109599
109602
109605
109608
109603
109593
109587
109590
109587
109582
109572
109556
109532
109510
109503
109512
109524
109556
109614
109489
109444
109472
109514
109543
109549
109528
109525
109552
109570
109573
109566
109554
109537
109519
109513
109512
109511
109510
109529
109563
109599
109633
109658
109669
109661
109635
109601
109589
109591
109600
109611
109599
109576
109546
109517
109504
109510
109534
109563
109597
109630
109649
109655
109651
109637
109617
109598
109588
109586
109591
109594
109595
109592
109588
109587
109591
109591
109587
109578
109564
109546
109528
109521
109527
109538
109568
109564
109533
109530
109554
109603
109600
109574
109512
109488
109506
109527
109555
109569
109563
109551
109546
109544
109549
109542
109529
109525
109537
109579
109644
109693
109711
109715
109696
109654
109622
109607
109595
109594
109591
109576
109558
109538
109522
109521
109531
109550
109578
109609
109626
109628
109620
109605
109587
109573
109565
109562
109565
109568
109569
109572
109576
109582
109589
109597
109598
109594
109586
109573
109556
109539
109536
109541
109567
109668
109648
109601
109562
109583
109600
109615
109616
109615
109608
109598
109612
109627
109624
109613
109600
109588
109582
109560
109540
109540
109560
109599
109645
109678
109692
109693
109681
109656
109624
109600
109586
109578
109574
109562
109542
109523
109509
109513
109526
109547
109572
109593
109607
109607
109598
109583
109566
109552
109542
109534
109533
109539
109545
109551
109558
109569
109583
109597
109608
109612
109610
109603
109587
109566
109552
109551
109576
109675
109637
109514
109510
109578
109607
109629
109656
109654
109625
109611
109635
109653
109648
109640
109622
109602
109585
109564
109553
109555
109573
109600
109628
109645
109654
109657
109655
109646
109621
109592
109572
109559
109554
109556
109556
109551
109550
109556
109564
109572
109577
109584
109594
109599
109592
109579
109563
109549
109534
109523
109522
109532
109539
109547
109558
109573
109589
109603
109615
109624
109626
109622
109614
109595
109574
109565
109583
109603
109444
109383
109443
109499
109540
109573
109599
109624
109645
109668
109688
109690
109681
109648
109617
109594
109583
109593
109607
109610
109606
109610
109613
109614
109616
109617
109620
109620
109608
109583
109561
109548
109543
109544
109554
109569
109578
109583
109585
109584
109582
109581
109587
109596
109593
109582
109567
109552
109536
109525
109524
109534
109542
109550
109562
109576
109590
109602
109610
109617
109623
109626
109624
109622
109608
109585
109584
109593
109541
109495
109509
109476
109460
109452
109462
109518
109579
109614
109609
109599
109591
109567
109557
109552
109554
109573
109603
109632
109645
109642
109626
109605
109590
109585
109585
109586
109588
109582
109564
109541
109528
109528
109541
109570
109589
109592
109588
109573
109564
109564
109571
109585
109587
109580
109566
109548
109533
109522
109521
109532
109541
109548
109558
109569
109579
109589
109596
109605
109616
109623
109627
109629
109626
109612
109581
109440
109565
109737
109801
109693
109566
109487
109470
109513
109589
109612
109578
109523
109483
109458
109468
109483
109503
109532
109569
109611
109652
109674
109676
109662
109627
109586
109561
109554
109553
109558
109555
109544
109525
109517
109519
109539
109565
109573
109571
109554
109538
109536
109544
109565
109579
109578
109567
109544
109528
109514
109511
109524
109539
109546
109554
109558
109558
109561
109566
109573
109586
109606
109621
109627
109630
109630
109599
109342
109711
109952
109964
109814
109600
109461
109475
109568
109666
109681
109636
109547
109459
109430
109447
109473
109503
109532
109555
109579
109611
109648
109660
109653
109623
109570
109534
109528
109532
109541
109545
109540
109526
109522
109528
109546
109568
109574
109570
109551
109532
109530
109540
109563
109580
109585
109580
109557
109535
109520
109510
109517
109531
109540
109548
109552
109547
109544
109545
109546
109555
109577
109601
109616
109623
109632
109619
109347
109970
110053
109813
109634
109429
109359
109441
109624
109767
109767
109706
109576
109485
109477
109515
109564
109586
109589
109572
109562
109579
109628
109658
109653
109627
109572
109531
109527
109534
109551
109565
109570
109557
109543
109540
109548
109563
109568
109565
109550
109535
109537
109552
109576
109591
109599
109593
109570
109541
109522
109508
109507
109518
109528
109537
109542
109536
109530
109531
109530
109533
109547
109569
109591
109607
109622
109633
109545
109883
109818
109670
109492
109260
109224
109408
109642
109741
109728
109669
109566
109530
109564
109629
109669
109677
109637
109587
109580
109594
109651
109687
109672
109635
109574
109538
109542
109562
109586
109599
109600
109582
109561
109552
109554
109568
109579
109578
109570
109556
109553
109562
109581
109599
109608
109606
109590
109562
109538
109525
109520
109523
109528
109531
109531
109528
109523
109522
109521
109521
109526
109539
109559
109585
109611
109649
109041
109961
109600
109589
109353
109184
109284
109486
109650
109677
109653
109594
109528
109533
109608
109696
109724
109719
109653
109595
109581
109585
109635
109658
109639
109603
109548
109521
109531
109557
109592
109607
109608
109594
109576
109566
109564
109573
109583
109576
109568
109558
109557
109569
109591
109615
109628
109629
109616
109592
109562
109540
109528
109521
109520
109521
109524
109525
109528
109528
109525
109522
109523
109528
109540
109564
109589
109647
98451.9
109239
109944
109827
109199
109163
109451
109709
109672
109613
109560
109486
109461
109500
109618
109707
109731
109720
109644
109582
109562
109557
109583
109585
109567
109543
109513
109508
109530
109563
109602
109621
109621
109609
109594
109583
109575
109578
109580
109572
109566
109565
109572
109588
109610
109631
109641
109637
109621
109596
109565
109540
109525
109518
109518
109524
109532
109539
109543
109541
109533
109526
109521
109517
109519
109528
109546
109621
57135.6
98913.9
109809
109482
108755
109131
109852
109884
109729
109606
109489
109431
109422
109496
109641
109692
109700
109677
109600
109542
109516
109506
109520
109519
109510
109504
109493
109510
109540
109578
109619
109643
109647
109639
109623
109605
109587
109567
109552
109547
109552
109559
109572
109591
109613
109631
109636
109628
109610
109583
109554
109534
109524
109524
109532
109540
109546
109550
109550
109544
109536
109527
109517
109509
109507
109508
109518
109603
33440.3
57258.6
99913.3
108507
108416
109582
110105
109898
109694
109559
109446
109434
109476
109622
109732
109735
109706
109641
109554
109507
109478
109467
109478
109480
109484
109491
109499
109523
109557
109593
109633
109671
109682
109677
109656
109620
109572
109530
109505
109497
109508
109529
109557
109584
109608
109619
109618
109607
109589
109564
109543
109535
109534
109540
109549
109554
109557
109558
109556
109553
109548
109539
109527
109511
109498
109501
109515
109599
32005.5
33477.2
57106.9
97163.5
106909
109970
110165
109692
109608
109504
109429
109469
109659
109845
109878
109832
109740
109617
109528
109491
109469
109466
109474
109483
109495
109512
109531
109555
109587
109621
109655
109690
109702
109692
109665
109621
109566
109512
109479
109472
109484
109506
109532
109555
109574
109585
109588
109581
109570
109555
109546
109546
109552
109558
109563
109567
109568
109568
109567
109565
109562
109555
109546
109536
109524
109521
109531
109610
32000
32005.9
33344.5
55416.4
95672
109684
109937
109565
109631
109470
109356
109449
109766
109934
109914
109844
109734
109606
109538
109503
109490
109492
109502
109522
109544
109573
109601
109620
109637
109658
109684
109706
109710
109696
109665
109616
109557
109504
109476
109471
109482
109501
109518
109533
109541
109548
109556
109561
109560
109557
109554
109554
109557
109562
109568
109575
109576
109573
109570
109570
109572
109573
109572
109571
109567
109561
109560
109633
32000
32000
32005
33148.5
54162.5
94011
108823
109842
110006
109402
109139
109394
109664
109732
109718
109716
109649
109562
109526
109511
109512
109520
109539
109577
109619
109650
109672
109683
109685
109692
109708
109717
109709
109686
109652
109605
109552
109510
109492
109490
109499
109513
109523
109526
109528
109533
109544
109560
109571
109577
109577
109571
109568
109565
109565
109567
109566
109566
109569
109576
109585
109595
109602
109607
109609
109607
109593
109660
32000
32000
32000
32003.9
33001.2
51586.5
93139.6
109995
110327
108710
108820
109421
109624
109500
109453
109491
109500
109494
109489
109497
109510
109526
109555
109602
109654
109682
109697
109703
109698
109696
109707
109705
109686
109658
109627
109591
109557
109529
109521
109526
109536
109541
109538
109530
109529
109535
109547
109568
109586
109595
109597
109588
109576
109566
109558
109555
109560
109570
109581
109591
109602
109615
109629
109636
109637
109640
109634
109698
32000
32000
32000
32000
32003.2
32754.4
49519.2
94046.6
108233
107723
109370
110179
109947
109627
109464
109405
109402
109436
109483
109509
109499
109488
109502
109553
109628
109667
109682
109690
109678
109662
109661
109654
109639
109621
109597
109580
109574
109568
109569
109572
109575
109571
109562
109552
109541
109542
109553
109575
109604
109616
109616
109603
109582
109567
109561
109560
109565
109576
109589
109599
109610
109624
109637
109646
109653
109661
109666
109751
32000
32000
32000
32000
32000
32002
32586.4
49336.5
89742.3
105607
111146
110971
110390
109968
109644
109429
109371
109438
109522
109530
109501
109445
109439
109468
109540
109614
109642
109652
109634
109595
109580
109573
109571
109584
109596
109606
109611
109610
109601
109589
109581
109573
109562
109559
109557
109560
109574
109597
109632
109654
109655
109645
109623
109594
109575
109570
109572
109583
109598
109607
109613
109621
109631
109643
109655
109670
109687
109802
32000
32000
32000
32000
32000
32000
32001.5
32526.9
46297.2
83620.7
109581
110724
110077
109917
109560
109418
109397
109547
109656
109628
109550
109435
109407
109433
109492
109572
109613
109625
109605
109554
109523
109507
109508
109537
109589
109637
109648
109648
109632
109600
109574
109558
109547
109545
109553
109569
109591
109616
109645
109671
109677
109670
109654
109626
109593
109579
109578
109585
109597
109602
109602
109602
109605
109617
109641
109674
109701
109844
32000
32000
32000
32000
32000
32000
32000
32001.1
32326.2
43039
84616.3
105056
108691
109422
109396
109341
109499
109668
109784
109741
109672
109548
109446
109450
109494
109569
109607
109610
109580
109522
109480
109468
109474
109503
109570
109649
109670
109668
109640
109579
109524
109505
109504
109519
109541
109563
109587
109613
109641
109669
109682
109679
109669
109648
109613
109584
109577
109580
109589
109595
109593
109589
109590
109595
109612
109652
109706
109870
32000
32000
32000
32000
32000
32000
32000
32000
32000.6
32198.4
42003.3
78372.8
106558
111190
109787
109167
109357
109575
109708
109724
109705
109624
109572
109583
109611
109639
109637
109616
109574
109521
109476
109452
109462
109499
109571
109654
109684
109672
109629
109551
109476
109452
109453
109472
109506
109540
109569
109595
109623
109654
109676
109677
109671
109654
109619
109583
109571
109574
109581
109588
109586
109580
109577
109582
109596
109631
109699
109895
32000
32000
32000
32000
32000
32000
32000
32000
32000
32000.3
32156.3
39534.3
74644
104503
107982
108669
109082
109522
109627
109669
109616
109605
109664
109719
109729
109704
109656
109589
109526
109487
109473
109465
109493
109543
109608
109675
109701
109668
109612
109533
109454
109425
109428
109448
109485
109525
109556
109580
109604
109631
109656
109660
109654
109637
109605
109569
109560
109566
109579
109592
109594
109585
109574
109575
109591
109628
109703
109931
32000
32000
32000
32000
32000
32000
32000
32000
32000
32000
32000.2
32087.1
37439.1
69851.7
102780
109625
109997
109707
109509
109353
109357
109481
109676
109790
109806
109724
109586
109476
109438
109436
109450
109489
109553
109614
109664
109695
109690
109651
109593
109522
109453
109427
109426
109442
109469
109500
109527
109548
109568
109588
109604
109610
109607
109596
109575
109550
109546
109555
109573
109597
109607
109604
109594
109585
109598
109636
109726
109990
32000
32000
32000
32000
32000
32000
32000
32000
32000
32000
32000
32000.1
32050.3
36011.9
64327.5
98469
109435
109763
109636
109272
109210
109430
109723
109841
109783
109646
109499
109417
109406
109428
109476
109543
109619
109683
109711
109713
109684
109637
109582
109522
109471
109449
109444
109455
109474
109501
109527
109545
109564
109581
109585
109582
109573
109558
109535
109518
109524
109540
109565
109593
109613
109617
109617
109613
109624
109669
109773
110078
32000
32000
32000
32000
32000
32000
32000
32000
32000
32000
32000
32000
32000
32029.2
34459.2
57209
97910.5
109385
109818
109803
109449
109552
109721
109816
109729
109588
109464
109440
109469
109511
109572
109633
109677
109713
109722
109709
109672
109633
109595
109555
109519
109493
109477
109480
109497
109530
109570
109597
109611
109613
109604
109590
109571
109547
109518
109500
109505
109518
109543
109581
109610
109622
109628
109637
109660
109719
109847
110199
32000
32000
32000
32000
32000
32000
32000
32000
32000
32000
32000
32000
32000
32000
32011.9
33407.3
53752.2
91539.3
109270
110128
109717
109516
109748
109805
109665
109516
109439
109478
109550
109625
109676
109692
109691
109701
109682
109653
109632
109617
109606
109588
109562
109529
109503
109495
109512
109551
109604
109654
109678
109679
109658
109623
109587
109552
109518
109501
109502
109509
109525
109557
109596
109622
109636
109653
109690
109772
109937
110345
32000
32000
32000
32000
32000
32000
32000
32000
32000
32000
32000
32000
32000
32000
32000
32005.2
32867.6
48743.2
88076.4
105624
108683
109258
109604
109611
109497
109365
109367
109457
109599
109684
109699
109682
109652
109640
109603
109582
109578
109594
109608
109605
109581
109544
109509
109489
109505
109546
109609
109671
109708
109715
109697
109664
109617
109567
109531
109514
109509
109510
109519
109542
109577
109608
109631
109661
109717
109827
110033
110504
32000
32000
32000
32000
32000
32000
32000
32000
32000
32000
32000
32000
32000
32000
32000
32000
32002.4
32493.9
43396.7
80248.6
106063
110594
110010
109270
109297
109306
109347
109432
109567
109635
109652
109640
109613
109588
109556
109542
109549
109573
109592
109599
109572
109531
109483
109449
109460
109500
109562
109644
109700
109712
109700
109675
109641
109602
109562
109537
109525
109518
109520
109538
109570
109598
109624
109663
109735
109876
110132
110664
32000
32000
32000
32000
32000
32000
32000
32000
32000
32000
32000
32000
32000
32000
32000
32000
32000
32001
32188.7
40176.1
73396.5
105540
108278
109060
109402
109545
109533
109552
109573
109582
109573
109578
109585
109592
109576
109543
109549
109568
109577
109583
109551
109508
109464
109430
109435
109466
109509
109567
109627
109656
109661
109654
109637
109611
109580
109554
109539
109532
109534
109547
109573
109599
109625
109668
109755
109930
110237
110815
32000
32000
32000
32000
32000
32000
32000
32000
32000
32000
32000
32000
32000
32000
32000
32000
32000
32000
32000.2
32108.6
37031.7
66984.2
98586.3
110247
110364
110025
109816
109778
109767
109647
109566
109571
109608
109646
109656
109646
109624
109605
109588
109570
109537
109500
109463
109435
109435
109454
109484
109522
109556
109583
109601
109611
109611
109603
109583
109555
109536
109530
109538
109561
109589
109613
109637
109683
109790
110001
110360
110957
32000
32000
32000
32000
32000
32000
32000
32000
32000
32000
32000
32000
32000
32000
32000
32000
32000
32000
32000
32000.1
32042.9
34908.6
57620.7
96428.2
107395
109144
109718
109921
109859
109708
109550
109535
109602
109673
109702
109717
109701
109671
109633
109596
109570
109542
109506
109490
109491
109493
109502
109517
109537
109558
109580
109598
109600
109592
109568
109538
109520
109518
109533
109566
109601
109629
109660
109710
109837
110092
110501
111095
32000
32000
32000
32000
32000
32000
32000
32000
32000
32000
32000
32000
32000
32000
32000
32000
32000
32000
32000
32000
32000
32015.6
33409.2
50931.9
88641.4
108088
110505
110346
109565
109551
109480
109470
109519
109589
109665
109700
109689
109679
109652
109630
109618
109580
109537
109522
109520
109536
109550
109561
109564
109570
109586
109605
109608
109598
109568
109524
109499
109495
109515
109562
109605
109637
109674
109738
109896
110200
110653
111214
32000
32000
32000
32000
32000
32000
32000
32000
32000
32000
32000
32000
32000
32000
32000
32000
32000
32000
32000
32000
32000
32000
32005.1
32590.4
45461.5
82287.6
104393
108553
109033
109432
109412
109448
109474
109511
109550
109578
109575
109592
109628
109639
109637
109591
109539
109522
109520
109543
109566
109582
109601
109617
109637
109654
109652
109633
109586
109526
109496
109491
109509
109558
109608
109644
109688
109771
109968
110326
110810
111305
32000
32000
32000
32000
32000
32000
32000
32000
32000
32000
32000
32000
32000
32000
32000
32000
32000
32000
32000
32000
32000
32000
32000
32001.4
32294.7
39967.3
71955
101759
110439
110372
109797
109610
109533
109573
109595
109557
109511
109492
109550
109606
109613
109580
109515
109482
109475
109503
109543
109577
109603
109631
109664
109687
109687
109667
109613
109546
109512
109502
109519
109570
109620
109657
109707
109814
110053
110466
110958
111365
32000
32000
32000
32000
32000
32000
32000
32000
32000
32000
32000
32000
32000
32000
32000
32000
32000
32000
32000
32000
32000
32000
32000
32000
32000.4
32092.1
36527.8
61668.1
99734.3
107534
109058
109586
109844
109813
109684
109550
109483
109473
109538
109602
109610
109578
109514
109467
109448
109454
109473
109508
109557
109613
109666
109690
109693
109675
109622
109561
109536
109530
109554
109606
109646
109685
109744
109878
110163
110621
111087
111403
32000
32000
32000
32000
32000
32000
32000
32000
32000
32000
32000
32000
32000
32000
32000
32000
32000
32000
32000
32000
32000
32000
32000
32000
32000
32000.1
32035.4
33979.5
54434
89401.4
108748
110774
110770
110029
109582
109511
109573
109655
109690
109676
109638
109590
109540
109496
109461
109445
109449
109465
109505
109576
109643
109670
109675
109655
109602
109558
109544
109545
109580
109634
109670
109714
109791
109966
110303
110784
111202
111433
32000
32000
32000
32000
32000
32000
32000
32000
32000
32000
32000
32000
32000
32000
32000
32000
32000
32000
32000
32000
32000
32000
32000
32000
32000
32000
32000
32008.6
32877.7
45968.7
82625.3
103817
109232
109209
109132
109378
109718
109817
109808
109727
109657
109614
109601
109587
109545
109486
109462
109468
109500
109570
109635
109657
109659
109624
109566
109539
109534
109550
109597
109651
109689
109741
109844
110068
110458
110939
111298
111456
32000
32000
32000
32000
32000
32000
32000
32000
32000
32000
32000
32000
32000
32000
32000
32000
32000
32000
32000
32000
32000
32000
32000
32000
32000
32000
32000
32000
32002.3
32307.4
40042.5
71277.8
102349
110211
109846
109843
109914
109731
109641
109549
109531
109578
109635
109637
109594
109514
109476
109481
109513
109582
109638
109656
109652
109611
109555
109538
109537
109556
109604
109656
109694
109756
109892
110173
110607
111066
111360
111469
32000
32000
32000
32000
32000
32000
32000
32000
32000
32000
32000
32000
32000
32000
32000
32000
32000
32000
32000
32000
32000
32000
32000
32000
32000
32000
32000
32000
32000
32000.5
32093.4
36316.7
60371
97074
106931
109109
109437
109097
109251
109333
109402
109532
109621
109602
109544
109464
109438
109457
109508
109581
109630
109644
109642
109608
109556
109543
109545
109566
109613
109662
109703
109782
109956
110282
110738
111151
111382
111465
32000
32000
32000
32000
32000
32000
32000
32000
32000
32000
32000
32000
32000
32000
32000
32000
32000
32000
32000
32000
32000
32000
32000
32000
32000
32000
32000
32000
32000
32000
32000.1
32031.7
33613
51526.7
86165.1
108609
109792
109560
109490
109452
109481
109563
109580
109538
109485
109423
109398
109412
109441
109503
109572
109598
109611
109595
109557
109546
109551
109573
109620
109672
109724
109830
110043
110409
110864
111222
111389
111460
32000
32000
32000
32000
32000
32000
32000
32000
32000
32000
32000
32000
32000
32000
32000
32000
32000
32000
32000
32000
32000
32000
32000
32000
32000
32000
32000
32000
32000
32000
32000
32000
32006.1
32636.1
42860
77484
101632
110264
110442
110004
109767
109664
109641
109596
109563
109534
109492
109443
109422
109437
109494
109547
109573
109578
109550
109533
109536
109555
109607
109680
109755
109888
110145
110545
110979
111281
111406
111471
32000
32000
32000
32000
32000
32000
32000
32000
32000
32000
32000
32000
32000
32000
32000
32000
32000
32000
32000
32000
32000
32000
32000
32000
32000
32000
32000
32000
32000
32000
32000
32000
32000
32001.4
32181.5
37627.7
63065.2
98846.1
108875
109209
109810
109995
109768
109711
109692
109697
109678
109588
109488
109464
109481
109544
109576
109584
109562
109527
109524
109539
109587
109676
109783
109951
110253
110676
111074
111325
111426
111492
32000
32000
32000
32000
32000
32000
32000
32000
32000
32000
32000
32000
32000
32000
32000
32000
32000
32000
32000
32000
32000
32000
32000
32000
32000
32000
32000
32000
32000
32000
32000
32000
32000
32000
32000.2
32047
34222.7
52911.3
88608.6
106233
110817
110518
109589
109552
109602
109643
109659
109605
109540
109529
109556
109596
109622
109625
109609
109567
109538
109547
109591
109684
109814
110016
110355
110782
111131
111345
111443
111517
32000
32000
32000
32000
32000
32000
32000
32000
32000
32000
32000
32000
32000
32000
32000
32000
32000
32000
32000
32000
32000
32000
32000
32000
32000
32000
32000
32000
32000
32000
32000
32000
32000
32000
32000
32000
32010.3
32720.6
44450.5
76693.4
105289
107841
108676
109135
109519
109507
109441
109427
109469
109531
109573
109593
109616
109624
109621
109603
109576
109581
109622
109712
109865
110105
110469
110876
111176
111357
111450
111531
32000
32000
32000
32000
32000
32000
32000
32000
32000
32000
32000
32000
32000
32000
32000
32000
32000
32000
32000
32000
32000
32000
32000
32000
32000
32000
32000
32000
32000
32000
32000
32000
32000
32000
32000
32000
32000
32001.8
32235
37725.2
64756.6
95449.9
109862
110801
110565
109736
109286
109240
109328
109456
109522
109546
109559
109569
109585
109596
109584
109596
109642
109749
109936
110220
110607
110983
111235
111383
111462
111538
32000
32000
32000
32000
32000
32000
32000
32000
32000
32000
32000
32000
32000
32000
32000
32000
32000
32000
32000
32000
32000
32000
32000
32000
32000
32000
32000
32000
32000
32000
32000
32000
32000
32000
32000
32000
32000
32000
32000.3
32052.1
34300.1
51520
88403.3
105150
109202
109225
109151
109315
109539
109575
109572
109551
109550
109563
109572
109567
109566
109590
109648
109773
109998
110327
110734
111080
111293
111415
111478
111551
32000
32000
32000
32000
32000
32000
32000
32000
32000
32000
32000
32000
32000
32000
32000
32000
32000
32000
32000
32000
32000
32000
32000
32000
32000
32000
32000
32000
32000
32000
32000
32000
32000
32000
32000
32000
32000
32000
32000
32000
32010.9
32653.1
42756.8
74215.5
102018
110194
110249
110117
110155
109833
109645
109579
109603
109626
109612
109571
109568
109593
109661
109805
110058
110422
110834
111147
111339
111439
111493
111566
32000
32000
32000
32000
32000
32000
32000
32000
32000
32000
32000
32000
32000
32000
32000
32000
32000
32000
32000
32000
32000
32000
32000
32000
32000
32000
32000
32000
32000
32000
32000
32000
32000
32000
32000
32000
32000
32000
32000
32000
32000
32001.4
32162.1
37061.3
60170.8
95527.1
106145
108965
109688
109238
109257
109450
109622
109695
109679
109604
109588
109622
109712
109880
110154
110534
110926
111202
111372
111448
111503
111576
32000
32000
32000
32000
32000
32000
32000
32000
32000
32000
32000
32000
32000
32000
32000
32000
32000
32000
32000
32000
32000
32000
32000
32000
32000
32000
32000
32000
32000
32000
32000
32000
32000
32000
32000
32000
32000
32000
32000
32000
32000
32000
32000.2
32041.1
33546
49099.3
81081
106768
109327
108881
109262
109532
109678
109697
109620
109531
109547
109616
109747
109961
110263
110658
111021
111257
111390
111451
111514
111583
32000
32000
32000
32000
32000
32000
32000
32000
32000
32000
32000
32000
32000
32000
32000
32000
32000
32000
32000
32000
32000
32000
32000
32000
32000
32000
32000
32000
32000
32000
32000
32000
32000
32000
32000
32000
32000
32000
32000
32000
32000
32000
32000
32000
32005.7
32443.2
39760.5
68443.2
97195.7
108908
110535
110412
109804
109680
109574
109483
109528
109614
109786
110038
110368
110760
111073
111279
111382
111448
111523
111592
32000
32000
32000
32000
32000
32000
32000
32000
32000
32000
32000
32000
32000
32000
32000
32000
32000
32000
32000
32000
32000
32000
32000
32000
32000
32000
32000
32000
32000
32000
32000
32000
32000
32000
32000
32000
32000
32000
32000
32000
32000
32000
32000
32000
32000
32000.8
32091.3
34873.5
53338.8
87947.5
106726
108457
108882
109404
109638
109659
109650
109690
109856
110123
110471
110842
111097
111262
111351
111429
111532
111610
32000
32000
32000
32000
32000
32000
32000
32000
32000
32000
32000
32000
32000
32000
32000
32000
32000
32000
32000
32000
32000
32000
32000
32000
32000
32000
32000
32000
32000
32000
32000
32000
32000
32000
32000
32000
32000
32000
32000
32000
32000
32000
32000
32000
32000
32000
32000.1
32014.9
32803.7
42508.8
73808.4
99156.3
109915
110584
110477
109919
109675
109686
109887
110190
110576
110941
111157
111278
111354
111426
111534
111626
32000
32000
32000
32000
32000
32000
32000
32000
32000
32000
32000
32000
32000
32000
32000
32000
32000
32000
32000
32000
32000
32000
32000
32000
32000
32000
32000
32000
32000
32000
32000
32000
32000
32000
32000
32000
32000
32000
32000
32000
32000
32000
32000
32000
32000
32000
32000
32000
32001.9
32155.6
36546.7
56768.3
93483.3
105842
108989
109080
109104
109372
109795
110249
110697
111054
111253
111326
111385
111442
111538
111623
32000
32000
32000
32000
32000
32000
32000
32000
32000
32000
32000
32000
32000
32000
32000
32000
32000
32000
32000
32000
32000
32000
32000
32000
32000
32000
32000
32000
32000
32000
32000
32000
32000
32000
32000
32000
32000
32000
32000
32000
32000
32000
32000
32000
32000
32000
32000
32000
32000
32000.2
32034.5
33157.8
46018.3
76494.4
103070
110344
110064
110093
110397
110499
110857
111158
111297
111339
111388
111451
111552
111627
32000
32000
32000
32000
32000
32000
32000
32000
32000
32000
32000
32000
32000
32000
32000
32000
32000
32000
32000
32000
32000
32000
32000
32000
32000
32000
32000
32000
32000
32000
32000
32000
32000
32000
32000
32000
32000
32000
32000
32000
32000
32000
32000
32000
32000
32000
32000
32000
32000
32000
32000
32003.6
32274.4
37694.7
60931.3
93771.7
105906
110328
110708
110428
110896
111168
111273
111299
111372
111487
111624
111705
32000
32000
32000
32000
32000
32000
32000
32000
32000
32000
32000
32000
32000
32000
32000
32000
32000
32000
32000
32000
32000
32000
32000
32000
32000
32000
32000
32000
32000
32000
32000
32000
32000
32000
32000
32000
32000
32000
32000
32000
32000
32000
32000
32000
32000
32000
32000
32000
32000
32000
32000
32000
32000.4
32049.8
33566.6
47497.4
77692
105542
108686
109480
110575
111204
111331
111366
111434
111582
111726
111806
32000
32000
32000
32000
32000
32000
32000
32000
32000
32000
32000
32000
32000
32000
32000
32000
32000
32000
32000
32000
32000
32000
32000
32000
32000
32000
32000
32000
32000
32000
32000
32000
32000
32000
32000
32000
32000
32000
32000
32000
32000
32000
32000
32000
32000
32000
32000
32000
32000
32000
32000
32000
32000
32000
32005.5
32359.3
37912.3
62753.3
92480.2
109405
112588
112489
111826
111479
111509
111617
111698
111760
32000
32000
32000
32000
32000
32000
32000
32000
32000
32000
32000
32000
32000
32000
32000
32000
32000
32000
32000
32000
32000
32000
32000
32000
32000
32000
32000
32000
32000
32000
32000
32000
32000
32000
32000
32000
32000
32000
32000
32000
32000
32000
32000
32000
32000
32000
32000
32000
32000
32000
32000
32000
32000
32000
32000
32000.5
32053.7
33802.9
47224.9
82001.2
104015
109799
110734
111093
111217
111399
111595
111764
32000
32000
32000
32000
32000
32000
32000
32000
32000
32000
32000
32000
32000
32000
32000
32000
32000
32000
32000
32000
32000
32000
32000
32000
32000
32000
32000
32000
32000
32000
32000
32000
32000
32000
32000
32000
32000
32000
32000
32000
32000
32000
32000
32000
32000
32000
32000
32000
32000
32000
32000
32000
32000
32000
32000
32000
32000
32007.1
32351.9
38936.8
63741
96968.7
111173
111900
111765
111808
111914
112051
32000
32000
32000
32000
32000
32000
32000
32000
32000
32000
32000
32000
32000
32000
32000
32000
32000
32000
32000
32000
32000
32000
32000
32000
32000
32000
32000
32000
32000
32000
32000
32000
32000
32000
32000
32000
32000
32000
32000
32000
32000
32000
32000
32000
32000
32000
32000
32000
32000
32000
32000
32000
32000
32000
32000
32000
32000
32000
32000.5
32069.5
34133
49503.8
85074
104658
111999
112445
112426
112236
32000
32000
32000
32000
32000
32000
32000
32000
32000
32000
32000
32000
32000
32000
32000
32000
32000
32000
32000
32000
32000
32000
32000
32000
32000
32000
32000
32000
32000
32000
32000
32000
32000
32000
32000
32000
32000
32000
32000