/*--------------------------------*- C++ -*----------------------------------*\
| =========                 |                                                 |
| \\      /  F ield         | OpenFOAM: The Open Source CFD Toolbox           |
|  \\    /   O peration     | Version:  2306                                  |
|   \\  /    A nd           | Website:  www.openfoam.com                      |
|    \\/     M anipulation  |                                                 |
\*---------------------------------------------------------------------------*/
FoamFile
{
    version     2.0;
    format      ascii;
    arch        "LSB;label=32;scalar=64";
    class       volScalarField;
    location    "0.0001";
    object      rho;
}
// * * * * * * * * * * * * * * * * * * * * * * * * * * * * * * * * * * * * * //

dimensions      [1 -3 0 0 0 0 0];

internalField   nonuniform List<scalar> 
9032
(
1.41983
1.41773
1.4169
1.41704
1.41753
1.41811
1.41825
1.41801
1.41721
1.41645
1.41638
1.41647
1.41651
1.4163
1.41581
1.41515
1.41481
1.4148
1.4149
1.41501
1.41502
1.41511
1.41521
1.41533
1.41541
1.41539
1.4152
1.41486
1.41471
1.41477
1.415
1.4154
1.41553
1.41532
1.41496
1.41447
1.41407
1.41398
1.41405
1.41424
1.41445
1.4146
1.41481
1.41499
1.41508
1.41507
1.41498
1.41477
1.41454
1.41443
1.41438
1.41439
1.41439
1.41439
1.41434
1.41422
1.41414
1.41413
1.41409
1.41404
1.41394
1.41379
1.41357
1.41335
1.41328
1.41334
1.41344
1.4137
1.41789
1.41637
1.41579
1.41599
1.41624
1.41631
1.41619
1.41583
1.41567
1.4158
1.41587
1.41583
1.4157
1.4155
1.41522
1.41494
1.41478
1.41469
1.41459
1.41451
1.41461
1.41484
1.4151
1.41536
1.41554
1.4156
1.41551
1.41522
1.41486
1.41471
1.4147
1.41476
1.41483
1.4147
1.41443
1.41409
1.41377
1.41361
1.41365
1.41384
1.4141
1.41439
1.41468
1.41484
1.41487
1.41481
1.41467
1.41446
1.41427
1.41417
1.41414
1.41417
1.41418
1.41418
1.41413
1.41408
1.41405
1.41407
1.41406
1.41403
1.41394
1.41382
1.41365
1.41347
1.4134
1.41344
1.41352
1.41377
1.41311
1.41297
1.41301
1.41327
1.41368
1.41363
1.4134
1.4129
1.41278
1.41302
1.41325
1.41349
1.41359
1.41353
1.41341
1.41339
1.41343
1.41352
1.41347
1.41333
1.41327
1.41338
1.41376
1.41438
1.41486
1.41505
1.41509
1.41492
1.41453
1.41423
1.41411
1.41402
1.41401
1.41398
1.41383
1.41363
1.41343
1.41328
1.41327
1.41337
1.41355
1.41382
1.41412
1.41427
1.41428
1.4142
1.41404
1.41387
1.41374
1.41367
1.41364
1.41367
1.41369
1.4137
1.41373
1.41377
1.41382
1.41389
1.41397
1.41398
1.41395
1.41388
1.41378
1.41362
1.41346
1.41342
1.41346
1.41369
1.41007
1.41055
1.41051
1.41025
1.41046
1.41068
1.41097
1.41123
1.41152
1.41172
1.41177
1.41195
1.41214
1.41215
1.41213
1.41215
1.4122
1.41232
1.41226
1.41212
1.41216
1.41238
1.4128
1.41331
1.41372
1.41393
1.41399
1.41393
1.41372
1.41345
1.41329
1.41321
1.41318
1.41317
1.41309
1.41292
1.41274
1.41264
1.41269
1.41284
1.41309
1.41337
1.4136
1.41375
1.41375
1.41368
1.41354
1.41338
1.41327
1.41318
1.41312
1.41313
1.4132
1.41327
1.41334
1.41342
1.41354
1.41368
1.41383
1.41394
1.41399
1.41398
1.41393
1.4138
1.41361
1.41348
1.41348
1.41371
1.40873
1.40905
1.40857
1.40866
1.40937
1.40974
1.4101
1.41062
1.41094
1.41098
1.41107
1.4114
1.41165
1.41166
1.41168
1.41166
1.41165
1.4117
1.4117
1.41171
1.41179
1.41202
1.41234
1.41266
1.4129
1.41309
1.41322
1.4133
1.41328
1.41311
1.41289
1.41277
1.4127
1.41271
1.41278
1.41281
1.41278
1.4128
1.41289
1.41301
1.41315
1.41325
1.41337
1.4135
1.41355
1.41349
1.41337
1.41324
1.41313
1.413
1.41293
1.41295
1.41306
1.41316
1.41325
1.41337
1.41352
1.41368
1.41384
1.41396
1.41406
1.4141
1.41408
1.41403
1.41387
1.41368
1.4136
1.41377
1.4091
1.40801
1.40791
1.40869
1.40942
1.40994
1.41036
1.41068
1.41103
1.41142
1.41186
1.41225
1.41238
1.41234
1.41208
1.41184
1.41174
1.41181
1.41209
1.41237
1.41248
1.41249
1.41254
1.4126
1.41267
1.41278
1.41292
1.41306
1.41313
1.41307
1.41288
1.41273
1.41267
1.41268
1.41274
1.41286
1.41302
1.41313
1.41321
1.41327
1.41332
1.41337
1.41342
1.41351
1.41361
1.41358
1.41348
1.41335
1.41322
1.41311
1.41304
1.41306
1.41318
1.41328
1.41338
1.4135
1.41363
1.41377
1.4139
1.41399
1.41407
1.41415
1.4142
1.41422
1.41421
1.41409
1.41387
1.41388
1.41212
1.41143
1.41115
1.41167
1.41184
1.41183
1.41168
1.41147
1.4117
1.41235
1.41288
1.4131
1.41315
1.41305
1.41271
1.41249
1.41244
1.41256
1.41291
1.41335
1.41368
1.41377
1.41368
1.41349
1.41331
1.41325
1.41332
1.41342
1.41347
1.41351
1.41347
1.41333
1.41316
1.4131
1.41312
1.41325
1.41351
1.41369
1.41374
1.41374
1.41365
1.41364
1.41371
1.4138
1.41393
1.41394
1.41386
1.41373
1.41358
1.41347
1.41341
1.41344
1.41357
1.41369
1.41376
1.41385
1.41394
1.41404
1.41412
1.4142
1.41429
1.41442
1.41451
1.41457
1.41461
1.41459
1.41445
1.41424
1.4142
1.41478
1.41677
1.41796
1.41753
1.41626
1.41515
1.41446
1.41442
1.41516
1.41556
1.41546
1.41502
1.41451
1.41403
1.41386
1.4139
1.41413
1.41453
1.415
1.41543
1.41571
1.41573
1.41563
1.41545
1.41515
1.41484
1.41467
1.41459
1.41458
1.41459
1.41456
1.41446
1.4143
1.41422
1.41422
1.41436
1.41457
1.41464
1.41463
1.41451
1.41442
1.41444
1.41452
1.41469
1.41478
1.41476
1.41464
1.41444
1.41432
1.41424
1.41423
1.41437
1.41451
1.41457
1.41462
1.41464
1.41462
1.41463
1.41466
1.41473
1.41487
1.41508
1.41523
1.4153
1.41533
1.41533
1.41518
1.41575
1.41885
1.42185
1.42244
1.42133
1.41885
1.41704
1.41685
1.41744
1.41848
1.41871
1.41838
1.41747
1.41641
1.4159
1.41583
1.41598
1.41631
1.41666
1.41696
1.41719
1.41737
1.41749
1.41744
1.4173
1.41698
1.4165
1.41616
1.41609
1.41608
1.4161
1.41609
1.41603
1.41588
1.41582
1.41583
1.41592
1.41607
1.41609
1.41604
1.41587
1.41573
1.41571
1.4158
1.41597
1.41606
1.41609
1.41602
1.4158
1.41562
1.4155
1.41542
1.41549
1.41562
1.41567
1.41571
1.41571
1.41563
1.41556
1.41553
1.41553
1.41562
1.41584
1.41608
1.41622
1.41629
1.41635
1.41639
1.41681
1.42313
1.42439
1.42255
1.42045
1.41794
1.41699
1.4176
1.41938
1.42088
1.42089
1.42027
1.41886
1.41774
1.41752
1.41774
1.4182
1.41848
1.41857
1.41846
1.41835
1.41842
1.4187
1.41884
1.41873
1.41842
1.41787
1.41745
1.41738
1.41741
1.41749
1.41758
1.4176
1.41747
1.4173
1.41723
1.41723
1.4173
1.41731
1.41727
1.41712
1.41698
1.417
1.41711
1.41728
1.41737
1.4174
1.41734
1.4171
1.41682
1.41665
1.41653
1.41653
1.41663
1.41669
1.41674
1.41675
1.41666
1.41653
1.41648
1.41645
1.41648
1.41661
1.41683
1.41704
1.41719
1.41729
1.41752
1.41924
1.42318
1.42272
1.42114
1.41883
1.41621
1.41584
1.41756
1.41999
1.42107
1.42094
1.42024
1.41901
1.41851
1.41872
1.4193
1.41975
1.41986
1.41952
1.41908
1.41899
1.41907
1.4195
1.41976
1.41958
1.41917
1.41854
1.41815
1.41815
1.41828
1.41846
1.41857
1.41857
1.4184
1.41817
1.41806
1.41803
1.4181
1.41817
1.41815
1.41807
1.41794
1.41791
1.41797
1.41811
1.41825
1.41829
1.41825
1.41808
1.4178
1.41757
1.41745
1.41742
1.41745
1.41749
1.41749
1.41747
1.4174
1.41729
1.41722
1.41718
1.41717
1.41722
1.41735
1.41754
1.41777
1.41799
1.41839
1.41424
1.42378
1.42022
1.4195
1.41681
1.41512
1.41614
1.41824
1.42003
1.42038
1.42012
1.41938
1.41853
1.41847
1.41907
1.41993
1.42027
1.42026
1.41972
1.4192
1.41906
1.41907
1.41949
1.41967
1.41946
1.41907
1.41849
1.41817
1.41822
1.41839
1.41869
1.41884
1.41886
1.41875
1.41858
1.41846
1.4184
1.41844
1.4185
1.41843
1.41834
1.41825
1.41825
1.41835
1.41855
1.41875
1.41885
1.41883
1.41869
1.41844
1.41815
1.41795
1.41785
1.4178
1.41779
1.4178
1.41782
1.4178
1.41778
1.41774
1.41768
1.41765
1.41766
1.41772
1.41784
1.41805
1.41827
1.41879
1.31523
1.41675
1.42262
1.42107
1.41461
1.41457
1.41737
1.42008
1.41985
1.41938
1.41881
1.41798
1.41761
1.41781
1.41879
1.41971
1.42003
1.42003
1.41946
1.41894
1.41876
1.41869
1.4189
1.41891
1.41871
1.41845
1.41812
1.41804
1.41818
1.41841
1.41875
1.41896
1.41898
1.41891
1.41878
1.41866
1.41854
1.41853
1.41854
1.41844
1.41838
1.41837
1.41844
1.41859
1.4188
1.41899
1.41906
1.41901
1.41884
1.41858
1.41827
1.41804
1.41792
1.41788
1.41789
1.41795
1.41802
1.41806
1.41807
1.41803
1.41794
1.41787
1.41782
1.41781
1.41783
1.41793
1.41808
1.41873
0.908699
1.32187
1.4206
1.41736
1.41036
1.41394
1.42079
1.42118
1.4199
1.41885
1.41778
1.41714
1.41692
1.41737
1.41863
1.41921
1.41936
1.41929
1.41873
1.41826
1.41803
1.41794
1.41806
1.41805
1.41797
1.41788
1.41777
1.4179
1.41812
1.41839
1.41873
1.419
1.41907
1.41903
1.41892
1.41876
1.41858
1.41837
1.41823
1.41817
1.4182
1.41826
1.41838
1.41856
1.41878
1.41895
1.41899
1.41891
1.41871
1.41843
1.41814
1.41796
1.41789
1.41791
1.418
1.41809
1.41814
1.41817
1.41815
1.41808
1.41799
1.4179
1.41781
1.41775
1.41774
1.41776
1.41786
1.41862
0.638638
0.909892
1.32929
1.40796
1.40723
1.41799
1.42283
1.42093
1.41917
1.41811
1.41712
1.41692
1.41712
1.41819
1.41919
1.41926
1.4191
1.41867
1.41798
1.4176
1.41735
1.41726
1.41738
1.41744
1.4175
1.41757
1.41762
1.4178
1.41803
1.4183
1.41861
1.41898
1.41912
1.41911
1.41897
1.41868
1.41829
1.41791
1.41767
1.41758
1.41766
1.41784
1.41809
1.41834
1.41859
1.41872
1.41871
1.41861
1.41841
1.41815
1.41793
1.41786
1.41786
1.41793
1.41804
1.41811
1.41815
1.41817
1.41815
1.4181
1.41805
1.41797
1.41787
1.41773
1.41762
1.41765
1.41779
1.41855
0.620145
0.639093
0.908012
1.30519
1.39423
1.42153
1.42322
1.41877
1.41821
1.4174
1.41673
1.41699
1.4185
1.42003
1.42034
1.41997
1.41926
1.41827
1.41753
1.41722
1.41702
1.417
1.41711
1.41726
1.4174
1.41756
1.41772
1.41789
1.41811
1.41835
1.41859
1.4189
1.41905
1.41898
1.41879
1.41847
1.41803
1.41757
1.41727
1.41718
1.41726
1.41744
1.41765
1.41786
1.41807
1.41821
1.41825
1.4182
1.41808
1.41792
1.41781
1.4178
1.41784
1.4179
1.41797
1.41805
1.4181
1.41812
1.41811
1.41811
1.41809
1.41803
1.41796
1.41788
1.41778
1.41775
1.41785
1.41856
0.62007
0.62015
0.637393
0.890412
1.29255
1.41906
1.42102
1.41757
1.4183
1.41691
1.41583
1.41656
1.41928
1.42077
1.42059
1.42003
1.41917
1.4181
1.4175
1.41718
1.41704
1.41707
1.41721
1.41745
1.41769
1.41797
1.41822
1.41835
1.41844
1.41856
1.41872
1.4189
1.41896
1.41885
1.4186
1.41822
1.41775
1.41733
1.41709
1.41702
1.4171
1.41723
1.41734
1.41747
1.41759
1.4177
1.41781
1.41787
1.41786
1.41781
1.41775
1.41772
1.41772
1.41776
1.41783
1.41792
1.41798
1.41799
1.41798
1.418
1.41804
1.41805
1.41805
1.41805
1.41803
1.41798
1.41797
1.41863
0.62007
0.62007
0.620139
0.634913
0.877545
1.27639
1.4105
1.42029
1.42172
1.41613
1.41356
1.41587
1.41825
1.41885
1.41878
1.41889
1.41841
1.41764
1.41729
1.41712
1.41712
1.4172
1.41742
1.41784
1.41828
1.41859
1.41879
1.41885
1.41882
1.41881
1.41888
1.41893
1.41886
1.41865
1.41836
1.41798
1.41756
1.41724
1.41711
1.41708
1.41715
1.41723
1.41726
1.41728
1.41733
1.41743
1.41758
1.41777
1.41788
1.41792
1.41789
1.41779
1.41771
1.41767
1.41766
1.4177
1.41773
1.41776
1.41782
1.4179
1.418
1.4181
1.41817
1.41822
1.41825
1.41825
1.41813
1.41875
0.62007
0.62007
0.62007
0.620124
0.633064
0.848767
1.26646
1.4219
1.42466
1.40963
1.41054
1.41601
1.41788
1.41674
1.4165
1.41692
1.41704
1.41694
1.41685
1.4169
1.41701
1.41719
1.4175
1.41801
1.41854
1.41882
1.41896
1.41899
1.41891
1.41883
1.41886
1.4188
1.4186
1.41833
1.41806
1.41778
1.41753
1.41735
1.41729
1.41734
1.41741
1.41741
1.41734
1.41726
1.41727
1.41737
1.41754
1.41779
1.41798
1.41805
1.41803
1.41792
1.41775
1.41763
1.41755
1.41753
1.4176
1.41772
1.41785
1.41796
1.41806
1.41819
1.41832
1.41838
1.41839
1.41844
1.4184
1.419
0.62007
0.62007
0.62007
0.62007
0.620114
0.629895
0.825882
1.27452
1.40564
1.40079
1.41554
1.42305
1.421
1.41817
1.41678
1.41622
1.41612
1.41634
1.41671
1.41693
1.41685
1.41679
1.41696
1.4175
1.41825
1.41863
1.41878
1.41884
1.41871
1.41852
1.41845
1.41834
1.41818
1.418
1.41779
1.41767
1.41767
1.41767
1.41769
1.41772
1.41772
1.41767
1.41755
1.41744
1.41738
1.41743
1.41757
1.41784
1.41815
1.41824
1.41821
1.41806
1.41782
1.41765
1.41758
1.41758
1.41764
1.41778
1.41792
1.41803
1.41814
1.41825
1.41836
1.41844
1.4185
1.41858
1.41864
1.41944
0.62007
0.62007
0.62007
0.62007
0.62007
0.620097
0.627744
0.822653
1.23545
1.38192
1.43186
1.43035
1.42526
1.4216
1.41861
1.41647
1.41578
1.41628
1.417
1.41709
1.41687
1.41641
1.41638
1.4167
1.41742
1.41812
1.41838
1.41848
1.41831
1.41793
1.41776
1.41767
1.41764
1.41776
1.41787
1.41797
1.41805
1.41807
1.41801
1.41791
1.41781
1.4177
1.41757
1.41754
1.41756
1.41762
1.4178
1.41809
1.41845
1.41864
1.41863
1.41851
1.41826
1.41794
1.41776
1.41772
1.41775
1.41788
1.41804
1.41813
1.41818
1.41823
1.41831
1.41842
1.41853
1.41869
1.41886
1.41993
0.62007
0.62007
0.62007
0.62007
0.62007
0.62007
0.62009
0.626934
0.789738
1.17881
1.41714
1.42811
1.42257
1.4214
1.41795
1.41632
1.41603
1.4173
1.41833
1.4181
1.41745
1.41647
1.41624
1.4165
1.41705
1.41778
1.41815
1.41827
1.41811
1.41764
1.41735
1.4172
1.4172
1.41746
1.41793
1.41839
1.41852
1.41853
1.4184
1.41808
1.4178
1.41761
1.41747
1.41748
1.41759
1.41778
1.41804
1.41834
1.41867
1.41891
1.41893
1.41886
1.41866
1.41835
1.41801
1.41788
1.41788
1.41795
1.41808
1.41813
1.41812
1.4181
1.41811
1.41821
1.41844
1.41877
1.41905
1.4204
0.62007
0.62007
0.62007
0.62007
0.62007
0.62007
0.62007
0.620085
0.624353
0.752782
1.18525
1.3762
1.4112
1.41714
1.4163
1.41564
1.41707
1.41862
1.41975
1.41939
1.41884
1.41776
1.41683
1.41686
1.41721
1.41787
1.41822
1.41827
1.41802
1.41753
1.41715
1.41704
1.41709
1.41735
1.41795
1.4187
1.41892
1.41889
1.4186
1.41798
1.41742
1.41719
1.41717
1.41734
1.41758
1.41783
1.41811
1.41841
1.41873
1.419
1.41911
1.41907
1.41894
1.41869
1.41832
1.41805
1.41799
1.41802
1.41812
1.41817
1.41813
1.41807
1.41805
1.41808
1.41825
1.41864
1.41918
1.42078
0.62007
0.62007
0.62007
0.62007
0.62007
0.62007
0.62007
0.62007
0.620078
0.622687
0.740626
1.12635
1.3929
1.4332
1.41998
1.41438
1.41614
1.41814
1.41935
1.41955
1.41946
1.41877
1.41827
1.41834
1.41849
1.41871
1.4187
1.41852
1.4182
1.41778
1.41737
1.41712
1.41719
1.41748
1.41815
1.41896
1.41925
1.41912
1.41867
1.41789
1.41711
1.41681
1.41681
1.417
1.41736
1.41773
1.41805
1.41837
1.41868
1.41898
1.41916
1.41916
1.41907
1.41886
1.4185
1.41816
1.41806
1.41809
1.41816
1.41821
1.41818
1.41809
1.41804
1.41807
1.4182
1.41855
1.41921
1.42109
0.62007
0.62007
0.62007
0.62007
0.62007
0.62007
0.62007
0.62007
0.62007
0.620074
0.622133
0.711736
1.09007
1.37164
1.40417
1.4105
1.4141
1.41802
1.41885
1.41929
1.41888
1.41886
1.4194
1.41988
1.41984
1.41957
1.41912
1.41855
1.41806
1.41774
1.41754
1.41741
1.41761
1.418
1.4186
1.41929
1.41956
1.41926
1.41871
1.41792
1.41706
1.4167
1.41671
1.41689
1.41725
1.41768
1.41803
1.41833
1.41861
1.41888
1.41908
1.41909
1.419
1.41879
1.41845
1.41811
1.41803
1.41809
1.41821
1.41832
1.41832
1.41821
1.41809
1.41809
1.41824
1.41861
1.41933
1.42149
0.62007
0.62007
0.62007
0.62007
0.62007
0.62007
0.62007
0.62007
0.62007
0.62007
0.620073
0.621222
0.687275
1.04049
1.35771
1.42015
1.4227
1.4199
1.41788
1.4165
1.41659
1.41781
1.41968
1.42062
1.4207
1.41992
1.41866
1.41772
1.41742
1.41737
1.41744
1.41772
1.41822
1.41871
1.41917
1.41952
1.4195
1.41917
1.41864
1.41793
1.41716
1.41683
1.41678
1.41689
1.41715
1.41749
1.41781
1.41807
1.41832
1.41852
1.41864
1.41866
1.41861
1.41845
1.41821
1.41797
1.41794
1.41803
1.41819
1.41839
1.41847
1.41842
1.41831
1.41822
1.41835
1.41873
1.41959
1.42208
0.62007
0.62007
0.62007
0.62007
0.62007
0.62007
0.62007
0.62007
0.62007
0.62007
0.62007
0.620071
0.62074
0.670111
0.985028
1.31931
1.41744
1.42025
1.41918
1.41587
1.41523
1.41722
1.41988
1.42089
1.42036
1.41913
1.41783
1.41715
1.41707
1.41726
1.41765
1.4182
1.4188
1.41928
1.41955
1.4196
1.41937
1.41899
1.41853
1.41794
1.41737
1.41708
1.41698
1.41703
1.41719
1.41748
1.41778
1.41803
1.41827
1.41845
1.41844
1.41837
1.41826
1.41807
1.41782
1.41767
1.41773
1.41789
1.41812
1.41836
1.41853
1.41855
1.41853
1.41849
1.4186
1.41904
1.42004
1.4229
0.62007
0.62007
0.62007
0.62007
0.62007
0.62007
0.62007
0.62007
0.62007
0.62007
0.62007
0.62007
0.620071
0.62046
0.651221
0.910212
1.31053
1.415
1.4212
1.42088
1.41712
1.41777
1.41916
1.42012
1.41943
1.41826
1.41725
1.41714
1.41744
1.41785
1.4184
1.41889
1.41919
1.41941
1.4195
1.41939
1.41907
1.41878
1.41853
1.41818
1.4178
1.41749
1.41727
1.41724
1.41736
1.4177
1.41813
1.41845
1.41865
1.41866
1.41855
1.41838
1.41815
1.41789
1.41761
1.41747
1.41752
1.41766
1.41791
1.41825
1.41849
1.41857
1.41861
1.41869
1.41891
1.41949
1.42071
1.42399
0.62007
0.62007
0.62007
0.62007
0.62007
0.62007
0.62007
0.62007
0.62007
0.62007
0.62007
0.62007
0.62007
0.620071
0.62023
0.638181
0.871992
1.25031
1.41581
1.42346
1.41908
1.41673
1.41882
1.41944
1.41832
1.41719
1.41664
1.41707
1.41784
1.4186
1.41911
1.41925
1.41915
1.41916
1.41896
1.41866
1.41847
1.41842
1.41846
1.41837
1.41814
1.41778
1.41745
1.41732
1.41744
1.41781
1.41835
1.41889
1.41917
1.41917
1.41895
1.41858
1.4182
1.41786
1.41756
1.41743
1.41746
1.41755
1.41772
1.41801
1.41834
1.41854
1.41864
1.41879
1.41914
1.41993
1.42149
1.4253
0.62007
0.62007
0.62007
0.62007
0.62007
0.62007
0.62007
0.62007
0.62007
0.62007
0.62007
0.62007
0.62007
0.62007
0.62007
0.620141
0.631305
0.815564
1.21811
1.38249
1.40929
1.41415
1.41732
1.41738
1.41651
1.41552
1.41563
1.4166
1.41805
1.41897
1.41916
1.41902
1.41871
1.41851
1.41809
1.41783
1.41782
1.41808
1.41838
1.41843
1.41826
1.4179
1.41746
1.41722
1.41734
1.41772
1.41834
1.41898
1.41935
1.4194
1.41921
1.41885
1.41838
1.41791
1.41761
1.4175
1.4175
1.41754
1.41765
1.41786
1.41815
1.41839
1.41856
1.41883
1.41934
1.42039
1.42233
1.42672
0.62007
0.62007
0.62007
0.62007
0.62007
0.62007
0.62007
0.62007
0.62007
0.62007
0.62007
0.62007
0.62007
0.62007
0.62007
0.62007
0.620103
0.626501
0.75558
1.14487
1.38617
1.42659
1.42117
1.41444
1.41484
1.41499
1.41544
1.41637
1.41779
1.41854
1.41872
1.4186
1.41832
1.41803
1.41765
1.41749
1.41757
1.4179
1.41823
1.41836
1.41816
1.41777
1.41724
1.41685
1.41694
1.4173
1.41791
1.41871
1.41923
1.41932
1.41919
1.4189
1.41855
1.41817
1.41785
1.41768
1.41764
1.41762
1.41766
1.41783
1.41809
1.41828
1.41848
1.41881
1.41947
1.4208
1.4232
1.42817
0.62007
0.62007
0.62007
0.62007
0.62007
0.62007
0.62007
0.62007
0.62007
0.62007
0.62007
0.62007
0.62007
0.62007
0.62007
0.62007
0.62007
0.620083
0.622543
0.719442
1.07709
1.38144
1.4066
1.41339
1.41622
1.41756
1.41755
1.4178
1.41807
1.41817
1.41804
1.41803
1.41808
1.41814
1.41797
1.41765
1.4177
1.41793
1.41813
1.41824
1.41798
1.4176
1.41713
1.41677
1.4168
1.41707
1.41746
1.418
1.41855
1.4188
1.41881
1.4187
1.4185
1.41825
1.418
1.41783
1.41778
1.41776
1.4178
1.41792
1.41812
1.4183
1.41848
1.41885
1.41965
1.42128
1.42415
1.42956
0.62007
0.62007
0.62007
0.62007
0.62007
0.62007
0.62007
0.62007
0.62007
0.62007
0.62007
0.62007
0.62007
0.62007
0.62007
0.62007
0.62007
0.62007
0.620074
0.621507
0.682309
1.01149
1.31983
1.42501
1.42529
1.42241
1.42078
1.42036
1.42017
1.4189
1.41799
1.41799
1.41833
1.41873
1.41885
1.41876
1.41854
1.41836
1.41825
1.41813
1.41787
1.41755
1.41719
1.41691
1.4169
1.41705
1.41731
1.41764
1.41792
1.41813
1.41826
1.41831
1.41828
1.4182
1.41804
1.41784
1.41777
1.41775
1.41784
1.41806
1.41828
1.41843
1.41859
1.41898
1.41995
1.42193
1.42529
1.43089
0.62007
0.62007
0.62007
0.62007
0.62007
0.62007
0.62007
0.62007
0.62007
0.62007
0.62007
0.62007
0.62007
0.62007
0.62007
0.62007
0.62007
0.62007
0.62007
0.620072
0.620641
0.656631
0.914274
1.29862
1.39651
1.41479
1.42039
1.42182
1.4211
1.41943
1.41778
1.41763
1.4183
1.41905
1.41936
1.41949
1.41931
1.419
1.41865
1.41833
1.41816
1.41797
1.41765
1.4175
1.41749
1.41748
1.41754
1.41765
1.4178
1.41795
1.4181
1.4182
1.4182
1.41811
1.41791
1.4177
1.41763
1.41765
1.41781
1.41811
1.41838
1.41857
1.41881
1.41923
1.42039
1.42277
1.42659
1.43218
0.62007
0.62007
0.62007
0.62007
0.62007
0.62007
0.62007
0.62007
0.62007
0.62007
0.62007
0.62007
0.62007
0.62007
0.62007
0.62007
0.62007
0.62007
0.62007
0.62007
0.620071
0.62028
0.638169
0.841154
1.22431
1.40418
1.42694
1.42541
1.41803
1.41779
1.41712
1.41708
1.41758
1.41828
1.41901
1.41927
1.41914
1.41903
1.41878
1.41861
1.41857
1.41829
1.41792
1.41779
1.41777
1.41791
1.41802
1.4181
1.4181
1.4181
1.41818
1.41828
1.41828
1.41818
1.41792
1.41759
1.41744
1.41744
1.41765
1.41807
1.41841
1.41864
1.41894
1.41949
1.42094
1.42378
1.428
1.43329
0.62007
0.62007
0.62007
0.62007
0.62007
0.62007
0.62007
0.62007
0.62007
0.62007
0.62007
0.62007
0.62007
0.62007
0.62007
0.62007
0.62007
0.62007
0.62007
0.62007
0.62007
0.62007
0.620139
0.627748
0.778881
1.16277
1.37055
1.40867
1.4129
1.41667
1.41663
1.41703
1.41727
1.41759
1.41789
1.41808
1.41803
1.41819
1.41856
1.41869
1.41871
1.4183
1.41783
1.4177
1.41771
1.41795
1.41817
1.41832
1.41847
1.41856
1.41867
1.41876
1.41872
1.41853
1.41811
1.41761
1.41741
1.41739
1.41758
1.41803
1.41842
1.41869
1.41906
1.4198
1.42161
1.42494
1.42945
1.43412
0.62007
0.62007
0.62007
0.62007
0.62007
0.62007
0.62007
0.62007
0.62007
0.62007
0.62007
0.62007
0.62007
0.62007
0.62007
0.62007
0.62007
0.62007
0.62007
0.62007
0.62007
0.62007
0.62007
0.620089
0.623925
0.716171
1.06236
1.34755
1.426
1.42546
1.42054
1.41875
1.41788
1.41819
1.41824
1.41784
1.41742
1.4173
1.41789
1.4184
1.41844
1.41809
1.41747
1.41722
1.41721
1.41752
1.41794
1.41826
1.41849
1.4187
1.41894
1.4191
1.41908
1.41887
1.41837
1.4178
1.41755
1.4175
1.41768
1.41814
1.41853
1.41881
1.41924
1.4202
1.4224
1.42624
1.43081
1.43465
0.62007
0.62007
0.62007
0.62007
0.62007
0.62007
0.62007
0.62007
0.62007
0.62007
0.62007
0.62007
0.62007
0.62007
0.62007
0.62007
0.62007
0.62007
0.62007
0.62007
0.62007
0.62007
0.62007
0.62007
0.620076
0.621283
0.676246
0.957152
1.32804
1.4004
1.4142
1.41848
1.42065
1.42028
1.41901
1.41777
1.41722
1.41718
1.41783
1.41835
1.41834
1.41798
1.41735
1.41697
1.4169
1.41701
1.41724
1.41759
1.41804
1.41852
1.41897
1.41915
1.41916
1.41897
1.41847
1.41794
1.41777
1.41774
1.41799
1.41847
1.41878
1.41908
1.41958
1.4208
1.42342
1.42766
1.43201
1.43496
0.62007
0.62007
0.62007
0.62007
0.62007
0.62007
0.62007
0.62007
0.62007
0.62007
0.62007
0.62007
0.62007
0.62007
0.62007
0.62007
0.62007
0.62007
0.62007
0.62007
0.62007
0.62007
0.62007
0.62007
0.62007
0.620071
0.620541
0.645262
0.878537
1.23275
1.41037
1.4289
1.42887
1.4221
1.41802
1.41751
1.41811
1.41889
1.41921
1.41897
1.41854
1.41801
1.41753
1.4172
1.41699
1.4169
1.41695
1.41712
1.4175
1.41816
1.41878
1.419
1.41903
1.41881
1.41829
1.4179
1.41782
1.41786
1.41823
1.41872
1.41901
1.41936
1.42003
1.42162
1.42471
1.42916
1.43307
1.43521
0.62007
0.62007
0.62007
0.62007
0.62007
0.62007
0.62007
0.62007
0.62007
0.62007
0.62007
0.62007
0.62007
0.62007
0.62007
0.62007
0.62007
0.62007
0.62007
0.62007
0.62007
0.62007
0.62007
0.62007
0.62007
0.62007
0.620071
0.620187
0.631395
0.784631
1.16614
1.36496
1.41473
1.4146
1.41402
1.4164
1.41955
1.42034
1.42021
1.41937
1.41865
1.41823
1.41815
1.41809
1.41776
1.41724
1.41702
1.41708
1.41741
1.41812
1.41875
1.41892
1.41891
1.41854
1.41794
1.41771
1.4177
1.41789
1.41837
1.41887
1.41918
1.41962
1.42053
1.42257
1.42614
1.4306
1.43395
1.43541
0.62007
0.62007
0.62007
0.62007
0.62007
0.62007
0.62007
0.62007
0.62007
0.62007
0.62007
0.62007
0.62007
0.62007
0.62007
0.62007
0.62007
0.62007
0.62007
0.62007
0.62007
0.62007
0.62007
0.62007
0.62007
0.62007
0.62007
0.62007
0.620102
0.624084
0.71719
1.05499
1.35241
1.42412
1.42085
1.42097
1.42136
1.41948
1.4185
1.41762
1.41755
1.41802
1.4186
1.41863
1.41821
1.41744
1.4171
1.41717
1.41753
1.41827
1.41882
1.41894
1.41886
1.41838
1.4178
1.41766
1.4177
1.41794
1.41843
1.4189
1.41922
1.41975
1.42097
1.42353
1.42752
1.43179
1.43451
1.43551
0.62007
0.62007
0.62007
0.62007
0.62007
0.62007
0.62007
0.62007
0.62007
0.62007
0.62007
0.62007
0.62007
0.62007
0.62007
0.62007
0.62007
0.62007
0.62007
0.62007
0.62007
0.62007
0.62007
0.62007
0.62007
0.62007
0.62007
0.62007
0.62007
0.620077
0.621299
0.673486
0.942916
1.30427
1.39505
1.41411
1.41678
1.41348
1.41481
1.41562
1.41642
1.41775
1.41857
1.41835
1.41771
1.41689
1.41669
1.41691
1.41751
1.41832
1.41879
1.41885
1.41874
1.41831
1.41777
1.41768
1.41777
1.41804
1.41852
1.41895
1.41929
1.41998
1.42155
1.42454
1.42873
1.43259
1.43467
1.43544
0.62007
0.62007
0.62007
0.62007
0.62007
0.62007
0.62007
0.62007
0.62007
0.62007
0.62007
0.62007
0.62007
0.62007
0.62007
0.62007
0.62007
0.62007
0.62007
0.62007
0.62007
0.62007
0.62007
0.62007
0.62007
0.62007
0.62007
0.62007
0.62007
0.62007
0.620071
0.620493
0.640651
0.846064
1.20074
1.40806
1.41982
1.41787
1.41717
1.41689
1.41729
1.41814
1.41825
1.41775
1.4171
1.41644
1.41628
1.41651
1.41694
1.41766
1.41828
1.41839
1.41838
1.41815
1.41776
1.41772
1.41785
1.41811
1.41857
1.41901
1.41945
1.4204
1.42234
1.42571
1.42991
1.43326
1.4347
1.43535
0.62007
0.62007
0.62007
0.62007
0.62007
0.62007
0.62007
0.62007
0.62007
0.62007
0.62007
0.62007
0.62007
0.62007
0.62007
0.62007
0.62007
0.62007
0.62007
0.62007
0.62007
0.62007
0.62007
0.62007
0.62007
0.62007
0.62007
0.62007
0.62007
0.62007
0.62007
0.620071
0.620153
0.628302
0.749465
1.11533
1.34619
1.42485
1.42617
1.42218
1.42013
1.41914
1.41879
1.41819
1.41774
1.41742
1.41712
1.41689
1.41685
1.41703
1.41749
1.41782
1.41795
1.41796
1.41773
1.41765
1.41776
1.41797
1.41843
1.41904
1.41969
1.42091
1.42328
1.42698
1.43101
1.4338
1.4348
1.43538
0.62007
0.62007
0.62007
0.62007
0.62007
0.62007
0.62007
0.62007
0.62007
0.62007
0.62007
0.62007
0.62007
0.62007
0.62007
0.62007
0.62007
0.62007
0.62007
0.62007
0.62007
0.62007
0.62007
0.62007
0.62007
0.62007
0.62007
0.62007
0.62007
0.62007
0.62007
0.62007
0.62007
0.620089
0.622451
0.688794
0.971515
1.3208
1.41173
1.41524
1.42073
1.42194
1.41976
1.41911
1.41889
1.41897
1.41894
1.41836
1.4175
1.4172
1.41724
1.41765
1.41793
1.41803
1.41792
1.4177
1.4177
1.41783
1.4182
1.41895
1.41993
1.42149
1.42431
1.42823
1.43193
1.43415
1.43491
1.4355
0.62007
0.62007
0.62007
0.62007
0.62007
0.62007
0.62007
0.62007
0.62007
0.62007
0.62007
0.62007
0.62007
0.62007
0.62007
0.62007
0.62007
0.62007
0.62007
0.62007
0.62007
0.62007
0.62007
0.62007
0.62007
0.62007
0.62007
0.62007
0.62007
0.62007
0.62007
0.62007
0.62007
0.62007
0.620073
0.620691
0.648215
0.862522
1.22485
1.38796
1.42929
1.42638
1.41767
1.41753
1.41811
1.41869
1.41899
1.41864
1.4179
1.41765
1.41774
1.41803
1.41836
1.4185
1.41849
1.41817
1.41785
1.41786
1.41816
1.41899
1.42022
1.42213
1.42531
1.42929
1.43249
1.43424
1.43496
1.43568
0.62007
0.62007
0.62007
0.62007
0.62007
0.62007
0.62007
0.62007
0.62007
0.62007
0.62007
0.62007
0.62007
0.62007
0.62007
0.62007
0.62007
0.62007
0.62007
0.62007
0.62007
0.62007
0.62007
0.62007
0.62007
0.62007
0.62007
0.62007
0.62007
0.62007
0.62007
0.62007
0.62007
0.62007
0.62007
0.620071
0.620209
0.629398
0.767184
1.10887
1.37862
1.40249
1.40932
1.41363
1.41752
1.41772
1.41717
1.41695
1.41713
1.41745
1.41774
1.41799
1.41837
1.41865
1.41873
1.41852
1.41814
1.41808
1.41836
1.41922
1.42072
1.42303
1.42646
1.43024
1.4329
1.43422
1.43493
1.43579
0.62007
0.62007
0.62007
0.62007
0.62007
0.62007
0.62007
0.62007
0.62007
0.62007
0.62007
0.62007
0.62007
0.62007
0.62007
0.62007
0.62007
0.62007
0.62007
0.62007
0.62007
0.62007
0.62007
0.62007
0.62007
0.62007
0.62007
0.62007
0.62007
0.62007
0.62007
0.62007
0.62007
0.62007
0.62007
0.62007
0.62007
0.620094
0.62314
0.690068
0.987755
1.29002
1.4199
1.42944
1.42746
1.42018
1.4157
1.41502
1.41558
1.41656
1.41729
1.4177
1.41808
1.4183
1.41843
1.41836
1.41804
1.41804
1.41848
1.41958
1.42146
1.42421
1.42784
1.43128
1.43335
1.43432
1.43498
1.43587
0.62007
0.62007
0.62007
0.62007
0.62007
0.62007
0.62007
0.62007
0.62007
0.62007
0.62007
0.62007
0.62007
0.62007
0.62007
0.62007
0.62007
0.62007
0.62007
0.62007
0.62007
0.62007
0.62007
0.62007
0.62007
0.62007
0.62007
0.62007
0.62007
0.62007
0.62007
0.62007
0.62007
0.62007
0.62007
0.62007
0.62007
0.62007
0.620074
0.62076
0.649121
0.846593
1.22158
1.37688
1.41559
1.4155
1.41423
1.4154
1.41716
1.41765
1.41789
1.41807
1.41824
1.41835
1.41825
1.41789
1.41767
1.41786
1.41852
1.4199
1.42217
1.42534
1.42909
1.43215
1.43372
1.43448
1.43512
1.43605
0.62007
0.62007
0.62007
0.62007
0.62007
0.62007
0.62007
0.62007
0.62007
0.62007
0.62007
0.62007
0.62007
0.62007
0.62007
0.62007
0.62007
0.62007
0.62007
0.62007
0.62007
0.62007
0.62007
0.62007
0.62007
0.62007
0.62007
0.62007
0.62007
0.62007
0.62007
0.62007
0.62007
0.62007
0.62007
0.62007
0.62007
0.62007
0.62007
0.620071
0.620216
0.628524
0.748231
1.08415
1.34989
1.42396
1.42415
1.4226
1.42285
1.41995
1.41882
1.41865
1.41887
1.41891
1.41844
1.41766
1.41754
1.41785
1.41868
1.42031
1.42288
1.42633
1.43005
1.43266
1.43393
1.43465
1.43535
1.43633
0.62007
0.62007
0.62007
0.62007
0.62007
0.62007
0.62007
0.62007
0.62007
0.62007
0.62007
0.62007
0.62007
0.62007
0.62007
0.62007
0.62007
0.62007
0.62007
0.62007
0.62007
0.62007
0.62007
0.62007
0.62007
0.62007
0.62007
0.62007
0.62007
0.62007
0.62007
0.62007
0.62007
0.62007
0.62007
0.62007
0.62007
0.62007
0.62007
0.62007
0.62007
0.620089
0.622193
0.682094
0.940565
1.29013
1.38704
1.41174
1.41848
1.41445
1.41559
1.41765
1.41916
1.41938
1.41881
1.41784
1.4177
1.41817
1.41928
1.42115
1.4239
1.42742
1.43085
1.43297
1.43404
1.43481
1.43559
1.43662
0.62007
0.62007
0.62007
0.62007
0.62007
0.62007
0.62007
0.62007
0.62007
0.62007
0.62007
0.62007
0.62007
0.62007
0.62007
0.62007
0.62007
0.62007
0.62007
0.62007
0.62007
0.62007
0.62007
0.62007
0.62007
0.62007
0.62007
0.62007
0.62007
0.62007
0.62007
0.62007
0.62007
0.62007
0.62007
0.62007
0.62007
0.62007
0.62007
0.62007
0.62007
0.62007
0.620073
0.620613
0.639779
0.818986
1.1519
1.39163
1.41518
1.41173
1.41575
1.41863
1.4196
1.41922
1.41811
1.4171
1.41735
1.41825
1.41981
1.42209
1.425
1.42854
1.43157
1.43318
1.43415
1.43496
1.43591
1.43689
0.62007
0.62007
0.62007
0.62007
0.62007
0.62007
0.62007
0.62007
0.62007
0.62007
0.62007
0.62007
0.62007
0.62007
0.62007
0.62007
0.62007
0.62007
0.62007
0.62007
0.62007
0.62007
0.62007
0.62007
0.62007
0.62007
0.62007
0.62007
0.62007
0.62007
0.62007
0.62007
0.62007
0.62007
0.62007
0.62007
0.62007
0.62007
0.62007
0.62007
0.62007
0.62007
0.62007
0.620071
0.620148
0.625816
0.713638
1.02522
1.30449
1.4128
1.42758
1.42649
1.42074
1.41895
1.41752
1.41662
1.4172
1.4184
1.42043
1.42299
1.42601
1.42938
1.43178
1.4331
1.43415
1.43511
1.43624
1.43716
0.62007
0.62007
0.62007
0.62007
0.62007
0.62007
0.62007
0.62007
0.62007
0.62007
0.62007
0.62007
0.62007
0.62007
0.62007
0.62007
0.62007
0.62007
0.62007
0.62007
0.62007
0.62007
0.62007
0.62007
0.62007
0.62007
0.62007
0.62007
0.62007
0.62007
0.62007
0.62007
0.62007
0.62007
0.62007
0.62007
0.62007
0.62007
0.62007
0.62007
0.62007
0.62007
0.62007
0.62007
0.62007
0.620081
0.621272
0.655988
0.865869
1.21766
1.39165
1.40913
1.41234
1.41625
1.41799
1.41813