/*--------------------------------*- C++ -*----------------------------------*\
| =========                 |                                                 |
| \\      /  F ield         | OpenFOAM: The Open Source CFD Toolbox           |
|  \\    /   O peration     | Version:  2306                                  |
|   \\  /    A nd           | Website:  www.openfoam.com                      |
|    \\/     M anipulation  |                                                 |
\*---------------------------------------------------------------------------*/
FoamFile
{
    version     2.0;
    format      ascii;
    arch        "LSB;label=32;scalar=64";
    class       volScalarField;
    location    "0.0001";
    object      T;
}
// * * * * * * * * * * * * * * * * * * * * * * * * * * * * * * * * * * * * * //

dimensions      [0 0 0 1 0 0 0];

internalField   nonuniform List<scalar> 
9032
(
269.3
269.277
269.28
269.326
269.416
269.531
269.618
269.665
269.672
269.67
269.698
269.736
269.761
269.775
269.786
269.789
269.803
269.839
269.88
269.913
269.944
269.98
270.01
270.04
270.067
270.084
270.08
270.074
270.082
270.105
270.138
270.178
270.196
270.193
270.185
270.165
270.156
270.161
270.174
270.197
270.22
270.238
270.261
270.28
270.295
270.3
270.298
270.29
270.279
270.274
270.275
270.28
270.287
270.293
270.293
270.29
270.29
270.299
270.3
270.297
270.291
270.279
270.264
270.251
270.248
270.257
270.27
270.297
269.643
269.623
269.622
269.654
269.711
269.768
269.804
269.82
269.845
269.886
269.918
269.933
269.94
269.949
269.961
269.971
269.985
270.002
270.016
270.03
270.058
270.096
270.134
270.17
270.197
270.213
270.212
270.201
270.187
270.186
270.193
270.204
270.216
270.214
270.208
270.199
270.187
270.187
270.194
270.215
270.24
270.266
270.292
270.308
270.319
270.318
270.312
270.302
270.292
270.287
270.287
270.293
270.299
270.304
270.304
270.303
270.306
270.314
270.315
270.313
270.307
270.296
270.283
270.272
270.269
270.276
270.288
270.313
270.431
270.381
270.364
270.375
270.417
270.42
270.4
270.341
270.304
270.303
270.312
270.334
270.349
270.348
270.341
270.331
270.321
270.315
270.306
270.303
270.302
270.312
270.342
270.385
270.413
270.422
270.423
270.409
270.382
270.359
270.345
270.334
270.332
270.331
270.323
270.315
270.304
270.293
270.293
270.3
270.312
270.329
270.348
270.361
270.365
270.361
270.352
270.34
270.331
270.326
270.323
270.326
270.329
270.33
270.332
270.334
270.338
270.343
270.347
270.347
270.343
270.336
270.325
270.312
270.302
270.301
270.306
270.328
271.271
271.13
271.02
270.974
270.986
270.985
270.966
270.919
270.861
270.806
270.772
270.77
270.773
270.762
270.738
270.705
270.665
270.626
270.584
270.559
270.555
270.559
270.576
270.591
270.595
270.59
270.578
270.562
270.54
270.512
270.486
270.465
270.452
270.443
270.429
270.414
270.399
270.386
270.386
270.387
270.392
270.4
270.408
270.413
270.413
270.407
270.396
270.383
270.371
270.362
270.353
270.351
270.352
270.353
270.354
270.356
270.361
270.367
270.374
270.38
270.381
270.377
270.368
270.355
270.339
270.329
270.328
270.345
271.548
271.389
271.177
271.151
271.183
271.184
271.169
271.135
271.069
270.989
270.938
270.933
270.931
270.915
270.891
270.852
270.804
270.751
270.701
270.671
270.659
270.661
270.668
270.672
270.67
270.658
270.638
270.619
270.6
270.572
270.54
270.516
270.495
270.482
270.474
270.468
270.46
270.456
270.454
270.45
270.444
270.436
270.43
270.43
270.432
270.426
270.416
270.403
270.39
270.376
270.363
270.359
270.36
270.36
270.362
270.366
270.373
270.381
270.388
270.394
270.396
270.395
270.388
270.378
270.363
270.347
270.341
270.351
271.296
271.112
270.981
270.979
270.977
270.979
270.981
270.982
270.976
270.954
270.925
270.901
270.881
270.865
270.836
270.806
270.767
270.726
270.698
270.679
270.664
270.654
270.652
270.648
270.639
270.621
270.598
270.578
270.565
270.546
270.52
270.495
270.475
270.46
270.451
270.453
270.459
270.461
270.458
270.451
270.44
270.426
270.413
270.41
270.414
270.412
270.404
270.392
270.378
270.362
270.347
270.341
270.342
270.342
270.344
270.35
270.358
270.366
270.373
270.376
270.376
270.376
270.373
270.368
270.362
270.351
270.336
270.334
270.692
270.695
270.635
270.57
270.456
270.417
270.429
270.492
270.586
270.614
270.597
270.543
270.509
270.507
270.515
270.533
270.529
270.512
270.492
270.482
270.489
270.504
270.513
270.511
270.494
270.467
270.442
270.423
270.415
270.413
270.406
270.388
270.362
270.344
270.34
270.346
270.367
270.38
270.379
270.37
270.348
270.329
270.317
270.316
270.325
270.329
270.326
270.316
270.301
270.284
270.267
270.261
270.263
270.264
270.267
270.274
270.283
270.291
270.298
270.302
270.304
270.307
270.308
270.307
270.305
270.301
270.291
270.257
269.915
270.114
270.156
270.089
269.905
269.834
269.852
269.939
270.053
270.1
270.081
270.017
269.965
269.963
269.993
270.051
270.08
270.084
270.08
270.083
270.103
270.152
270.2
270.226
270.225
270.197
270.154
270.127
270.121
270.124
270.132
270.132
270.123
270.108
270.103
270.107
270.129
270.154
270.161
270.158
270.138
270.116
270.108
270.111
270.13
270.147
270.149
270.144
270.127
270.109
270.093
270.087
270.092
270.1
270.107
270.117
270.123
270.127
270.133
270.139
270.142
270.148
270.158
270.165
270.167
270.168
270.169
270.122
269.379
269.697
269.722
269.638
269.481
269.423
269.427
269.497
269.614
269.657
269.649
269.602
269.556
269.542
269.566
269.621
269.658
269.67
269.672
269.674
269.688
269.735
269.802
269.841
269.849
269.836
269.797
269.773
269.774
269.784
269.803
269.813
269.814
269.808
269.81
269.822
269.848
269.876
269.886
269.884
269.869
269.851
269.848
269.858
269.883
269.904
269.914
269.913
269.899
269.88
269.865
269.856
269.86
269.87
269.882
269.895
269.904
269.907
269.913
269.921
269.923
269.928
269.941
269.955
269.964
269.969
269.979
269.94
269.188
269.52
269.485
269.246
269.206
269.178
269.185
269.271
269.383
269.451
269.447
269.415
269.364
269.352
269.375
269.426
269.459
269.459
269.45
269.43
269.426
269.455
269.522
269.569
269.578
269.573
269.543
269.522
269.524
269.538
269.562
269.58
269.587
269.583
269.58
269.586
269.604
269.627
269.638
269.639
269.631
269.62
269.622
269.636
269.662
269.684
269.697
269.696
269.684
269.664
269.65
269.638
269.637
269.645
269.657
269.671
269.681
269.686
269.693
269.705
269.709
269.712
269.72
269.733
269.747
269.759
269.775
269.759
269.215
269.3
269.226
269.163
269.163
269.091
269.073
269.199
269.312
269.351
269.343
269.331
269.311
269.318
269.361
269.411
269.425
269.424
269.388
269.35
269.347
269.366
269.426
269.466
269.463
269.45
269.419
269.405
269.413
269.439
269.464
269.477
269.478
269.467
269.456
269.457
269.467
269.487
269.501
269.503
269.5
269.49
269.489
269.498
269.517
269.537
269.552
269.553
269.547
269.532
269.516
269.506
269.5
269.502
269.507
269.512
269.517
269.523
269.532
269.543
269.548
269.549
269.552
269.56
269.573
269.591
269.615
269.633
268.923
269.377
269.164
269.274
269.204
269.111
269.162
269.26
269.324
269.325
269.314
269.31
269.307
269.333
269.404
269.455
269.461
269.449
269.392
269.346
269.337
269.345
269.39
269.412
269.404
269.389
269.364
269.358
269.375
269.406
269.436
269.444
269.442
269.429
269.418
269.417
269.422
269.436
269.448
269.446
269.443
269.435
269.434
269.443
269.461
269.481
269.495
269.498
269.494
269.483
269.465
269.449
269.438
269.43
269.429
269.43
269.433
269.44
269.451
269.459
269.461
269.461
269.461
269.463
269.47
269.486
269.508
269.553
261.087
268.935
269.553
269.561
269.245
269.163
269.339
269.46
269.412
269.355
269.332
269.308
269.318
269.377
269.479
269.524
269.523
269.495
269.416
269.362
269.349
269.35
269.374
269.377
269.369
269.361
269.35
269.353
269.38
269.417
269.449
269.456
269.452
269.437
269.424
269.42
269.423
269.432
269.436
269.433
269.431
269.429
269.434
269.444
269.46
269.475
269.485
269.484
269.479
269.467
269.449
269.431
269.417
269.407
269.405
269.408
269.415
269.424
269.433
269.434
269.433
269.43
269.425
269.418
269.418
269.423
269.437
269.497
219.306
260.995
269.605
269.418
268.957
269.203
269.675
269.679
269.542
269.438
269.355
269.332
269.354
269.452
269.569
269.583
269.574
269.529
269.446
269.393
269.372
269.367
269.379
269.377
269.372
269.371
269.367
269.383
269.417
269.457
269.493
269.503
269.499
269.487
269.47
269.455
269.444
269.433
269.424
269.425
269.43
269.435
269.444
269.456
269.47
269.481
269.487
269.483
269.475
269.462
269.446
269.431
269.42
269.416
269.418
269.421
269.425
269.432
269.434
269.434
269.431
269.426
269.419
269.411
269.406
269.406
269.412
269.476
182.633
219.49
262.161
268.803
268.715
269.542
269.909
269.761
269.595
269.464
269.373
269.383
269.448
269.604
269.685
269.678
269.638
269.561
269.477
269.434
269.41
269.4
269.404
269.398
269.395
269.4
269.41
269.436
269.473
269.512
269.552
269.575
269.575
269.566
269.541
269.505
269.463
269.431
269.415
269.414
269.424
269.442
269.463
269.482
269.494
269.498
269.497
269.489
269.48
269.469
269.458
269.452
269.45
269.452
269.453
269.452
269.451
269.451
269.451
269.451
269.449
269.442
269.432
269.418
269.407
269.408
269.418
269.48
180.009
182.704
219.361
259.653
267.45
269.825
269.981
269.665
269.567
269.463
269.407
269.455
269.637
269.802
269.825
269.784
269.691
269.577
269.498
269.467
269.45
269.446
269.446
269.44
269.442
269.452
269.471
269.498
269.534
269.572
269.609
269.635
269.638
269.627
269.595
269.549
269.496
269.45
269.428
269.428
269.439
269.462
269.485
269.502
269.508
269.508
269.508
269.502
269.496
269.491
269.49
269.493
269.499
269.501
269.5
269.496
269.49
269.486
269.483
269.481
269.477
269.47
269.461
269.451
269.441
269.438
269.446
269.505
180
180.01
182.465
217.075
258.167
269.592
269.84
269.582
269.607
269.473
269.399
269.489
269.751
269.882
269.865
269.799
269.692
269.582
269.529
269.505
269.497
269.498
269.497
269.5
269.507
269.525
269.548
269.57
269.595
269.623
269.656
269.675
269.675
269.661
269.631
269.583
269.528
269.478
269.456
269.455
269.466
269.489
269.511
269.522
269.52
269.515
269.514
269.515
269.515
269.517
269.52
269.527
269.533
269.538
269.541
269.539
269.532
269.523
269.516
269.513
269.511
269.51
269.507
269.505
269.5
269.494
269.494
269.547
180
180
180.008
182.102
215.275
256.897
269.098
269.747
269.878
269.453
269.294
269.485
269.695
269.749
269.729
269.703
269.629
269.561
269.541
269.535
269.538
269.541
269.546
269.56
269.58
269.598
269.614
269.628
269.641
269.659
269.683
269.696
269.691
269.674
269.645
269.602
269.552
269.507
269.49
269.49
269.5
269.519
269.537
269.54
269.537
269.53
269.528
269.531
269.538
269.546
269.552
269.556
269.561
269.563
269.563
269.561
269.554
269.548
269.546
269.546
269.549
269.555
269.559
269.561
269.56
269.556
269.544
269.591
180
180
180
180.007
181.822
211.988
256.511
269.817
270.106
268.986
269.084
269.524
269.667
269.58
269.511
269.525
269.522
269.526
269.532
269.543
269.552
269.559
269.569
269.59
269.617
269.632
269.642
269.651
269.655
269.663
269.687
269.692
269.683
269.667
269.641
269.606
269.569
269.536
269.527
269.531
269.541
269.554
269.559
269.556
269.551
269.546
269.544
269.547
269.555
269.565
269.571
269.573
269.574
269.572
269.569
269.565
269.565
269.566
269.569
269.572
269.578
269.588
269.598
269.603
269.602
269.602
269.594
269.637
180
180
180
180
180.005
181.37
209.132
257.372
268.566
268.226
269.487
270.049
269.87
269.62
269.484
269.445
269.456
269.498
269.545
269.565
269.555
269.54
269.544
269.566
269.608
269.63
269.64
269.647
269.642
269.639
269.651
269.652
269.648
269.637
269.618
269.6
269.585
269.571
269.569
269.57
269.576
269.579
269.578
269.573
269.56
269.553
269.551
269.555
269.568
269.581
269.585
269.583
269.577
269.572
269.569
269.567
269.567
269.569
269.573
269.578
269.586
269.598
269.609
269.617
269.621
269.624
269.625
269.683
180
180
180
180
180
180.003
181.057
209.177
253.358
266.546
270.744
270.603
270.147
269.806
269.577
269.455
269.445
269.514
269.584
269.587
269.558
269.507
269.497
269.509
269.55
269.599
269.617
269.624
269.61
269.587
269.583
269.583
269.584
269.594
269.603
269.607
269.604
269.597
269.586
269.578
269.577
269.577
269.576
269.572
269.563
269.558
269.559
269.563
269.578
269.598
269.603
269.601
269.595
269.582
269.571
269.566
269.565
269.568
269.575
269.579
269.585
269.594
269.604
269.613
269.62
269.626
269.636
269.715
180
180
180
180
180
180
180.002
180.961
204.473
247.42
269.704
270.423
269.889
269.719
269.497
269.457
269.461
269.588
269.66
269.637
269.569
269.472
269.446
269.46
269.501
269.56
269.589
269.595
269.579
269.541
269.52
269.511
269.512
269.534
269.573
269.604
269.604
269.602
269.59
269.572
269.562
269.557
269.556
269.549
269.548
269.551
269.556
269.561
269.571
269.589
269.597
269.596
269.594
269.584
269.567
269.557
269.555
269.558
269.563
269.566
269.568
269.572
269.578
269.588
269.604
269.62
269.635
269.729
180
180
180
180
180
180
180
180.002
180.588
199.414
249.004
266.257
268.639
269.31
269.406
269.398
269.516
269.635
269.706
269.669
269.604
269.504
269.43
269.436
269.475
269.536
269.562
269.561
269.532
269.483
269.452
269.444
269.448
269.472
269.52
269.573
269.585
269.583
269.569
269.538
269.509
269.507
269.508
269.514
269.521
269.527
269.533
269.539
269.547
269.565
269.578
269.578
269.578
269.573
269.556
269.538
269.532
269.533
269.537
269.541
269.543
269.546
269.551
269.558
269.569
269.592
269.624
269.723
180
180
180
180
180
180
180
180
180.001
180.355
197.81
242.692
266.827
270.597
269.669
269.209
269.341
269.498
269.597
269.597
269.568
269.497
269.467
269.481
269.519
269.547
269.545
269.527
269.484
269.434
269.401
269.389
269.402
269.435
269.486
269.536
269.557
269.55
269.529
269.488
269.451
269.448
269.45
269.461
269.477
269.491
269.5
269.505
269.514
269.532
269.551
269.555
269.556
269.554
269.538
269.514
269.505
269.506
269.51
269.516
269.518
269.519
269.522
269.529
269.539
269.558
269.6
269.724
180
180
180
180
180
180
180
180
180
180
180.279
193.74
238.838
265.737
268.223
268.718
269.053
269.392
269.492
269.51
269.46
269.435
269.476
269.522
269.554
269.544
269.511
269.455
269.394
269.358
269.36
269.366
269.398
269.446
269.492
269.526
269.538
269.515
269.48
269.439
269.405
269.402
269.408
269.425
269.445
269.463
269.471
269.475
269.481
269.496
269.519
269.527
269.528
269.527
269.513
269.488
269.481
269.485
269.494
269.507
269.511
269.509
269.506
269.508
269.518
269.539
269.586
269.736
180
180
180
180
180
180
180
180
180
180
180
180.155
190.002
234.154
264.036
269.239
269.668
269.49
269.384
269.262
269.255
269.331
269.455
269.556
269.58
269.526
269.426
269.335
269.298
269.302
269.324
269.368
269.429
269.486
269.522
269.531
269.523
269.489
269.447
269.408
269.385
269.384
269.39
269.408
269.425
269.438
269.444
269.445
269.447
269.457
269.473
269.485
269.488
269.49
269.485
269.469
269.466
269.471
269.484
269.503
269.514
269.515
269.513
269.508
269.515
269.537
269.594
269.769
180
180
180
180
180
180
180
180
180
180
180
180
180.089
187.44
227.778
260.324
269.286
269.56
269.45
269.185
269.153
269.318
269.533
269.63
269.589
269.484
269.371
269.297
269.284
269.303
269.346
269.409
269.482
269.547
269.564
269.56
269.533
269.49
269.443
269.405
269.389
269.39
269.397
269.414
269.43
269.441
269.447
269.446
269.447
269.455
269.466
269.471
269.471
269.47
269.46
269.448
269.451
269.46
269.477
269.499
269.517
269.524
269.527
269.526
269.532
269.558
269.624
269.829
180
180
180
180
180
180
180
180
180
180
180
180
180
180.051
184.561
219.223
260.584
269.629
269.514
269.54
269.381
269.513
269.664
269.715
269.632
269.507
269.395
269.357
269.369
269.394
269.441
269.498
269.551
269.598
269.602
269.591
269.56
269.519
269.473
269.44
269.425
269.421
269.424
269.435
269.453
269.472
269.488
269.492
269.489
269.491
269.491
269.489
269.485
269.476
269.457
269.441
269.443
269.448
269.464
269.493
269.519
269.533
269.54
269.546
269.56
269.597
269.68
269.918
180
180
180
180
180
180
180
180
180
180
180
180
180
180
180.02
182.583
215.004
255.361
269.19
269.847
269.669
269.621
269.793
269.816
269.685
269.534
269.447
269.461
269.494
269.533
269.562
269.577
269.591
269.615
269.606
269.591
269.576
269.548
269.514
269.487
269.467
269.454
269.454
269.457
269.475
269.502
269.53
269.55
269.557
269.558
269.549
269.533
269.515
269.495
269.469
269.451
269.448
269.448
269.454
269.478
269.512
269.539
269.553
269.567
269.59
269.643
269.751
270.029
180
180
180
180
180
180
180
180
180
180
180
180
180
180
180
180.009
181.59
208.459
252.194
266.481
268.985
269.475
269.727
269.73
269.617
269.48
269.464
269.501
269.573
269.609
269.609
269.593
269.581
269.587
269.576
269.574
269.565
269.557
269.535
269.516
269.49
269.467
269.465
269.462
269.477
269.508
269.543
269.575
269.596
269.602
269.595
269.581
269.556
269.522
269.491
269.47
269.458
269.452
269.454
269.468
269.501
269.531
269.555
269.58
269.619
269.692
269.829
270.148
180
180
180
180
180
180
180
180
180
180
180
180
180
180
180
180
180.004
180.902
200.327
244.481
266.877
270.392
269.99
269.451
269.442
269.434
269.45
269.483
269.545
269.569
269.576
269.571
269.558
269.551
269.544
269.539
269.541
269.539
269.523
269.514
269.486
269.46
269.444
269.432
269.443
269.473
269.511
269.56
269.599
269.61
269.607
269.599
269.584
269.557
269.522
269.493
269.471
269.457
269.455
269.466
269.496
269.526
269.554
269.586
269.638
269.733
269.905
270.265
180
180
180
180
180
180
180
180
180
180
180
180
180
180
180
180
180
180.002
180.342
194.776
237.676
266.47
268.493
269.133
269.437
269.535
269.507
269.507
269.506
269.51
269.513
269.525
269.533
269.54
269.532
269.512
269.517
269.52
269.506
269.499
269.469
269.438
269.417
269.403
269.409
269.434
269.465
269.505
269.548
269.574
269.583
269.586
269.582
269.566
269.538
269.506
269.48
269.464
269.463
269.472
269.496
269.526
269.556
269.593
269.655
269.773
269.981
270.37
180
180
180
180
180
180
180
180
180
180
180
180
180
180
180
180
180
180
180
180.193
189.302
230.98
260.532
269.843
270.078
269.792
269.589
269.575
269.585
269.53
269.505
269.518
269.543
269.56
269.562
269.554
269.544
269.53
269.509
269.489
269.456
269.424
269.402
269.387
269.39
269.407
269.432
269.462
269.492
269.519
269.54
269.556
269.56
269.556
269.539
269.505
269.474
269.46
269.464
269.48
269.507
269.536
269.564
269.604
269.681
269.824
270.067
270.466
180
180
180
180
180
180
180
180
180
180
180
180
180
180
180
180
180
180
180
180
180.075
185.427
219.819
258.992
268.227
269.075
269.423
269.65
269.634
269.579
269.505
269.496
269.535
269.568
269.579
269.591
269.586
269.57
269.545
269.513
269.482
269.45
269.421
269.412
269.415
269.421
269.432
269.448
269.469
269.493
269.519
269.543
269.55
269.545
269.525
269.49
269.458
269.451
269.458
269.483
269.517
269.548
269.58
269.623
269.714
269.888
270.165
270.558
180
180
180
180
180
180
180
180
180
180
180
180
180
180
180
180
180
180
180
180
180
180.027
182.597
211.192
252.528
268.485
270.11
270.011
269.493
269.505
269.457
269.441
269.466
269.505
269.554
269.589
269.588
269.585
269.566
269.543
269.522
269.482
269.446
269.435
269.433
269.445
269.459
269.472
269.48
269.493
269.519
269.545
269.552
269.546
269.522
269.477
269.443
269.435
269.445
269.479
269.522
269.557
269.591
269.642
269.754
269.962
270.271
270.639
180
180
180
180
180
180
180
180
180
180
180
180
180
180
180
180
180
180
180
180
180
180
180.009
181.079
203.581
246.832
265.669
268.779
269.16
269.425
269.384
269.396
269.413
269.444
269.484
269.519
269.52
269.53
269.55
269.551
269.543
269.507
269.469
269.451
269.446
269.456
269.47
269.482
269.499
269.521
269.551
269.576
269.578
269.568
269.533
269.477
269.442
269.432
269.441
269.477
269.525
269.563
269.601
269.665
269.804
270.05
270.38
270.703
180
180
180
180
180
180
180
180
180
180
180
180
180
180
180
180
180
180
180
180
180
180
180
180.002
180.536
194.649
236.24
263.386
270.124
270.066
269.587
269.469
269.444
269.482
269.53
269.511
269.476
269.453
269.486
269.526
269.535
269.519
269.477
269.444
269.429
269.438
269.457
269.479
269.501
269.529
269.566
269.592
269.595
269.585
269.548
269.491
269.454
269.441
269.449
269.487
269.534
269.571
269.614
269.694
269.863
270.148
270.483
270.749
180
180
180
180
180
180
180
180
180
180
180
180
180
180
180
180
180
180
180
180
180
180
180
180
180.001
180.166
188.401
224.721
261.937
267.83
268.974
269.461
269.682
269.678
269.601
269.509
269.447
269.429
269.465
269.523
269.546
269.534
269.497
269.455
269.421
269.416
269.419
269.438
269.474
269.519
269.563
269.587
269.594
269.586
269.552
269.501
269.473
269.463
269.475
269.512
269.552
269.59
269.638
269.738
269.94
270.257
270.572
270.782
180
180
180
180
180
180
180
180
180
180
180
180
180
180
180
180
180
180
180
180
180
180
180
180
180
180
180.062
183.673
216.109
252.95
268.938
270.396
270.391
269.862
269.537
269.461
269.499
269.552
269.577
269.587
269.578
269.558
269.527
269.482
269.437
269.415
269.414
269.422
269.447
269.495
269.544
269.567
269.576
269.567
269.536
269.501
269.482
269.477
269.494
269.533
269.568
269.608
269.67
269.798
270.037
270.371
270.65
270.809
180
180
180
180
180
180
180
180
180
180
180
180
180
180
180
180
180
180
180
180
180
180
180
180
180
180
180
180.015
181.62
204.343
247.13
265.285
269.304
269.271
269.192
269.345
269.581
269.675
269.678
269.638
269.601
269.575
269.56
269.539
269.497
269.452
269.433
269.435
269.451
269.49
269.53
269.55
269.557
269.544
269.513
269.492
269.481
269.484
269.507
269.547
269.581
269.626
269.705
269.869
270.144
270.477
270.717
270.827
180
180
180
180
180
180
180
180
180
180
180
180
180
180
180
180
180
180
180
180
180
180
180
180
180
180
180
180
180.004
180.56
194.738
235.65
263.961
269.923
269.649
269.619
269.721
269.627
269.592
269.534
269.503
269.528
269.558
269.559
269.531
269.482
269.453
269.452
269.461
269.491
269.523
269.544
269.551
269.541
269.513
269.497
269.489
269.49
269.514
269.553
269.586
269.636
269.74
269.942
270.249
270.561
270.764
270.838
180
180
180
180
180
180
180
180
180
180
180
180
180
180
180
180
180
180
180
180
180
180
180
180
180
180
180
180
180
180.001
180.168
188.079
223.315
259.596
267.35
269.115
269.416
269.206
269.334
269.38
269.4
269.466
269.529
269.524
269.504
269.461
269.436
269.44
269.454
269.48
269.51
269.533
269.55
269.547
269.522
269.506
269.495
269.496
269.521
269.559
269.595
269.658
269.787
270.02
270.34
270.617
270.785
270.842
180
180
180
180
180
180
180
180
180
180
180
180
180
180
180
180
180
180
180
180
180
180
180
180
180
180
180
180
180
180
180
180.056
182.999
212.419
250.292
269.033
269.713
269.512
269.474
269.433
269.427
269.467
269.489
269.48
269.476
269.447
269.416
269.406
269.395
269.414
269.464
269.507
269.541
269.546
269.527
269.508
269.496
269.497
269.527
269.571
269.615
269.696
269.849
270.108
270.423
270.664
270.798
270.848
180
180
180
180
180
180
180
180
180
180
180
180
180
180
180
180
180
180
180
180
180
180
180
180
180
180
180
180
180
180
180
180
180.01
181.173
199.464
242.31
263.322
269.916
270.101
269.786
269.593
269.525
269.539
269.54
269.544
269.534
269.486
269.411
269.366
269.37
269.422
269.49
269.53
269.538
269.515
269.487
269.475
269.481
269.522
269.585
269.645
269.742
269.921
270.2
270.497
270.707
270.82
270.868
180
180
180
180
180
180
180
180
180
180
180
180
180
180
180
180
180
180
180
180
180
180
180
180
180
180
180
180
180
180
180
180
180
180.002
180.328
190.538
226.414
261.028
268.993
269.148
269.585
269.807
269.664
269.648
269.642
269.639
269.598
269.488
269.407
269.403
269.439
269.514
269.542
269.539
269.508
269.463
269.456
269.47
269.517
269.591
269.669
269.785
269.992
270.283
270.552
270.745
270.849
270.896
180
180
180
180
180
180
180
180
180
180
180
180
180
180
180
180
180
180
180
180
180
180
180
180
180
180
180
180
180
180
180
180
180
180
180
180.084
184.145
213.964
252.322
266.96
270.428
270.247
269.622
269.557
269.569
269.562
269.544
269.477
269.457
269.477
269.527
269.57
269.572
269.553
269.514
269.473
269.462
269.483
269.533
269.604
269.69
269.823
270.051
270.342
270.586
270.776
270.88
270.924
180
180
180
180
180
180
180
180
180
180
180
180
180
180
180
180
180
180
180
180
180
180
180
180
180
180
180
180
180
180
180
180
180
180
180
180
180.018
181.326
202.088
241.236
266.38
268.193
268.959
269.273
269.478
269.411
269.351
269.359
269.43
269.521
269.571
269.57
269.554
269.522
269.497
269.495
269.501
269.526
269.572
269.631
269.721
269.871
270.113
270.391
270.62
270.809
270.903
270.938
180
180
180
180
180
180
180
180
180
180
180
180
180
180
180
180
180
180
180
180
180
180
180
180
180
180
180
180
180
180
180
180
180
180
180
180
180
180.003
180.429
190.679
228.664
258.073
269.869
270.359
270.158
269.508
269.251
269.266
269.377
269.504
269.528
269.511
269.47
269.452
269.468
269.508
269.539
269.567
269.6
269.652
269.754
269.929
270.189
270.455
270.678
270.855
270.923
270.939
180
180
180
180
180
180
180
180
180
180
180
180
180
180
180
180
180
180
180
180
180
180
180
180
180
180
180
180
180
180
180
180
180
180
180
180
180
180
180
180.093
184.303
212.259
252.413
266.363
269.063
269.138
269.199
269.38
269.595
269.593
269.538
269.452
269.418
269.429
269.47
269.526
269.566
269.588
269.605
269.652
269.771
269.978
270.262
270.527
270.75
270.902
270.933
270.935
180
180
180
180
180
180
180
180
180
180
180
180
180
180
180
180
180
180
180
180
180
180
180
180
180
180
180
180
180
180
180
180
180
180
180
180
180
180
180
180
180.019
181.204
199.312
238.763
263.598
269.913
270.012
269.983
270.028
269.789
269.541
269.412
269.428
269.476
269.532
269.578
269.594
269.598
269.606
269.652
269.784
270.022
270.326
270.595
270.822
270.929
270.927
270.92
180
180
180
180
180
180
180
180
180
180
180
180
180
180
180
180
180
180
180
180
180
180
180
180
180
180
180
180
180
180
180
180
180
180
180
180
180
180
180
180
180
180.002
180.295
189.513
223.131
258.259
266.916
269.211
269.71
269.372
269.201
269.285
269.42
269.559
269.626
269.626
269.613
269.609
269.619
269.675
269.825
270.088
270.398
270.67
270.881
270.921
270.907
270.891
180
180
180
180
180
180
180
180
180
180
180
180
180
180
180
180
180
180
180
180
180
180
180
180
180
180
180
180
180
180
180
180
180
180
180
180
180
180
180
180
180
180
180
180.073
182.883
209.104
245.51
267.596
269.451
269.006
269.182
269.3
269.475
269.592
269.613
269.588
269.581
269.579
269.602
269.696
269.884
270.179
270.492
270.763
270.903
270.898
270.873
270.855
180
180
180
180
180
180
180
180
180
180
180
180
180
180
180
180
180
180
180
180
180
180
180
180
180
180
180
180
180
180
180
180
180
180
180
180
180
180
180
180
180
180
180
180
180.01
180.818
194.329
232.851
259.877
268.87
270.06
269.967
269.566
269.604
269.612
269.561
269.562
269.545
269.582
269.715
269.95
270.27
270.581
270.832
270.885
270.864
270.833
270.827
180
180
180
180
180
180
180
180
180
180
180
180
180
180
180
180
180
180
180
180
180
180
180
180
180
180
180
180
180
180
180
180
180
180
180
180
180
180
180
180
180
180
180
180
180
180.001
180.165
185.423
214.859
251.918
267.489
268.454
268.894
269.438
269.682
269.706
269.638
269.563
269.596
269.748
270.023
270.356
270.659
270.844
270.848
270.815
270.803
270.814
180
180
180
180
180
180
180
180
180
180
180
180
180
180
180
180
180
180
180
180
180
180
180
180
180
180
180
180
180
180
180
180
180
180
180
180
180
180
180
180
180
180
180
180
180
180
180
180.026
181.487
199.022
238.383
261.155
269.489
270.328
270.291
269.911
269.628
269.526
269.605
269.794
270.109
270.458
270.749
270.859
270.841
270.791
270.783
270.815
180
180
180
180
180
180
180
180
180
180
180
180
180
180
180
180
180
180
180
180
180
180
180
180
180
180
180
180
180
180
180
180
180
180
180
180
180
180
180
180
180
180
180
180
180
180
180
180
180.003
180.284
188.535
219.047
256.59
266.631
269.281
269.272
269.201
269.307
269.536
269.843
270.217
270.568
270.838
270.879
270.852
270.793
270.783
270.825
180
180
180
180
180
180
180
180
180
180
180
180
180
180
180
180
180
180
180
180
180
180
180
180
180
180
180
180
180
180
180
180
180
180
180
180
180
180
180
180
180
180
180
180
180
180
180
180
180
180
180.061
182.151
204.534
241.048
264.782
270.167
269.862
269.803
269.956
270.054
270.368
270.666
270.864
270.867
270.837
270.795
270.801
270.857
180
180
180
180
180
180
180
180
180
180
180
180
180
180
180
180
180
180
180
180
180
180
180
180
180
180
180
180
180
180
180
180
180
180
180
180
180
180
180
180
180
180
180
180
180
180
180
180
180
180
180
180.006
180.505
190.723
224.238
257.078
266.747
269.903
270.239
270.06
270.425
270.695
270.838
270.828
270.817
270.823
270.868
270.959
180
180
180
180
180
180
180
180
180
180
180
180
180
180
180
180
180
180
180
180
180
180
180
180
180
180
180
180
180
180
180
180
180
180
180
180
180
180
180
180
180
180
180
180
180
180
180
180
180
180
180
180
180.001
180.089
182.939
206.926
242.301
266.609
268.65
269.287
270.227
270.787
270.896
270.874
270.868
270.908
270.991
271.119
180
180
180
180
180
180
180
180
180
180
180
180
180
180
180
180
180
180
180
180
180
180
180
180
180
180
180
180
180
180
180
180
180
180
180
180
180
180
180
180
180
180
180
180
180
180
180
180
180
180
180
180
180
180
180.009
180.663
191.09
226.536
255.597
269.169
271.738
271.72
271.284
270.979
270.966
270.99
271.053
271.183
180
180
180
180
180
180
180
180
180
180
180
180
180
180
180
180
180
180
180
180
180
180
180
180
180
180
180
180
180
180
180
180
180
180
180
180
180
180
180
180
180
180
180
180
180
180
180
180
180
180
180
180
180
180
180
180.001
180.096
183.387
206.329
246.592
265.37
269.937
270.694
270.808
270.817
270.896
271.044
271.301
180
180
180
180
180
180
180
180
180
180
180
180
180
180
180
180
180
180
180
180
180
180
180
180
180
180
180
180
180
180
180
180
180
180
180
180
180
180
180
180
180
180
180
180
180
180
180
180
180
180
180
180
180
180
180
180
180
180.012
180.647
192.939
227.638
259.807
271.515
271.504
271.294
271.301
271.4
271.62
180
180
180
180
180
180
180
180
180
180
180
180
180
180
180
180
180
180
180
180
180
180
180
180
180
180
180
180
180
180
180
180
180
180
180
180
180
180
180
180
180
180
180
180
180
180
180
180
180
180
180
180
180
180
180
180
180
180
180.001
180.126
184.028
209.641
249.832
266.338
271.809
271.937
271.902
271.825
180
180
180
180
180
180
180
180
180
180
180
180
180
180
180
180
180
180
180
180
180
180
180
180
180
180
180
180
180
180
180
180
180
180
180
180
180
180
180
180
180
180
180
180
180
180
180
180
180
180
180
180
180
180
180
180
180
180
180
180
180.016
180.829
195.408
229.986
263.339
269.751
270.775
271.232
180
180
180
180
180
180
180
180
180
180
180
180
180
180
180
180
180
180
180
180
180
180
180
180