/*--------------------------------*- C++ -*----------------------------------*\
| =========                 |                                                 |
| \\      /  F ield         | OpenFOAM: The Open Source CFD Toolbox           |
|  \\    /   O peration     | Version:  2306                                  |
|   \\  /    A nd           | Website:  www.openfoam.com                      |
|    \\/     M anipulation  |                                                 |
\*---------------------------------------------------------------------------*/
FoamFile
{
    version     2.0;
    format      ascii;
    arch        "LSB;label=32;scalar=64";
    class       volVectorField;
    location    "0.0001";
    object      U;
}
// * * * * * * * * * * * * * * * * * * * * * * * * * * * * * * * * * * * * * //

dimensions      [0 1 -1 0 0 0 0];

internalField   nonuniform List<vector> 
9032
(
(365.71 155.167 0)
(365.71 155.358 0)
(365.648 155.435 0)
(365.611 155.428 0)
(365.589 155.366 0)
(365.625 155.251 0)
(365.629 155.171 0)
(365.565 155.109 0)
(365.381 155.081 0)
(365.176 155.092 0)
(365.116 155.094 0)
(365.133 155.082 0)
(365.184 155.056 0)
(365.222 155.045 0)
(365.223 155.047 0)
(365.159 155.065 0)
(365.103 155.077 0)
(365.098 155.075 0)
(365.111 155.053 0)
(365.143 155 0)
(365.142 154.964 0)
(365.084 154.922 0)
(365.003 154.877 0)
(364.923 154.845 0)
(364.85 154.819 0)
(364.787 154.806 0)
(364.719 154.807 0)
(364.651 154.841 0)
(364.617 154.868 0)
(364.61 154.87 0)
(364.637 154.874 0)
(364.727 154.866 0)
(364.806 154.852 0)
(364.853 154.857 0)
(364.891 154.869 0)
(364.895 154.887 0)
(364.896 154.905 0)
(364.912 154.911 0)
(364.909 154.899 0)
(364.877 154.87 0)
(364.816 154.828 0)
(364.728 154.79 0)
(364.656 154.757 0)
(364.615 154.731 0)
(364.607 154.714 0)
(364.612 154.706 0)
(364.62 154.7 0)
(364.626 154.701 0)
(364.636 154.71 0)
(364.664 154.722 0)
(364.693 154.728 0)
(364.718 154.732 0)
(364.719 154.731 0)
(364.699 154.722 0)
(364.654 154.705 0)
(364.601 154.694 0)
(364.565 154.692 0)
(364.561 154.694 0)
(364.566 154.701 0)
(364.574 154.708 0)
(364.582 154.712 0)
(364.582 154.715 0)
(364.558 154.717 0)
(364.516 154.72 0)
(364.481 154.725 0)
(364.461 154.725 0)
(364.447 154.721 0)
(364.44 154.716 0)
(365.55 155.11 0)
(365.311 155.407 0)
(365.177 155.454 0)
(365.157 155.43 0)
(365.205 155.381 0)
(365.254 155.307 0)
(365.226 155.213 0)
(365.126 155.07 0)
(365.021 154.915 0)
(364.975 154.88 0)
(364.961 154.933 0)
(364.961 154.983 0)
(364.986 154.99 0)
(365.007 154.963 0)
(365.001 154.912 0)
(364.976 154.882 0)
(364.963 154.906 0)
(364.96 154.94 0)
(364.964 154.952 0)
(364.972 154.9 0)
(364.982 154.787 0)
(364.985 154.693 0)
(364.966 154.641 0)
(364.921 154.622 0)
(364.862 154.62 0)
(364.8 154.633 0)
(364.729 154.658 0)
(364.641 154.724 0)
(364.539 154.822 0)
(364.497 154.901 0)
(364.513 154.944 0)
(364.581 154.956 0)
(364.673 154.928 0)
(364.731 154.913 0)
(364.78 154.915 0)
(364.805 154.927 0)
(364.8 154.95 0)
(364.798 154.948 0)
(364.793 154.925 0)
(364.771 154.873 0)
(364.73 154.784 0)
(364.685 154.698 0)
(364.648 154.643 0)
(364.614 154.611 0)
(364.601 154.607 0)
(364.596 154.608 0)
(364.6 154.612 0)
(364.61 154.617 0)
(364.63 154.62 0)
(364.657 154.624 0)
(364.683 154.615 0)
(364.707 154.6 0)
(364.71 154.592 0)
(364.696 154.581 0)
(364.665 154.569 0)
(364.627 154.567 0)
(364.596 154.576 0)
(364.588 154.587 0)
(364.59 154.603 0)
(364.589 154.615 0)
(364.589 154.626 0)
(364.58 154.637 0)
(364.552 154.651 0)
(364.505 154.67 0)
(364.466 154.69 0)
(364.446 154.699 0)
(364.433 154.698 0)
(364.424 154.695 0)
(364.595 155.055 0)
(364.411 154.951 0)
(364.402 154.879 0)
(364.51 154.806 0)
(364.704 154.702 0)
(364.737 154.673 0)
(364.669 154.658 0)
(364.48 154.719 0)
(364.33 154.851 0)
(364.291 154.93 0)
(364.315 154.926 0)
(364.404 154.862 0)
(364.47 154.809 0)
(364.477 154.788 0)
(364.466 154.766 0)
(364.464 154.771 0)
(364.483 154.789 0)
(364.524 154.806 0)
(364.54 154.811 0)
(364.541 154.782 0)
(364.537 154.726 0)
(364.549 154.669 0)
(364.571 154.597 0)
(364.603 154.539 0)
(364.606 154.521 0)
(364.571 154.524 0)
(364.531 154.548 0)
(364.466 154.599 0)
(364.385 154.668 0)
(364.354 154.724 0)
(364.374 154.747 0)
(364.41 154.76 0)
(364.473 154.76 0)
(364.542 154.755 0)
(364.589 154.767 0)
(364.625 154.78 0)
(364.633 154.775 0)
(364.62 154.755 0)
(364.6 154.736 0)
(364.574 154.71 0)
(364.538 154.667 0)
(364.5 154.631 0)
(364.476 154.589 0)
(364.461 154.558 0)
(364.458 154.554 0)
(364.463 154.553 0)
(364.475 154.562 0)
(364.497 154.569 0)
(364.526 154.575 0)
(364.552 154.571 0)
(364.576 154.549 0)
(364.603 154.514 0)
(364.61 154.487 0)
(364.598 154.476 0)
(364.574 154.476 0)
(364.544 154.486 0)
(364.52 154.5 0)
(364.51 154.512 0)
(364.513 154.525 0)
(364.515 154.54 0)
(364.514 154.554 0)
(364.504 154.571 0)
(364.48 154.592 0)
(364.438 154.617 0)
(364.391 154.644 0)
(364.361 154.66 0)
(364.347 154.669 0)
(364.335 154.674 0)
(363.46 154.523 0)
(363.29 154.709 0)
(363.385 154.721 0)
(363.71 154.545 0)
(364.041 154.348 0)
(364.098 154.311 0)
(363.992 154.341 0)
(363.835 154.467 0)
(363.736 154.602 0)
(363.723 154.653 0)
(363.777 154.649 0)
(363.876 154.637 0)
(363.94 154.617 0)
(363.947 154.611 0)
(363.949 154.619 0)
(363.96 154.634 0)
(364 154.648 0)
(364.067 154.63 0)
(364.095 154.59 0)
(364.104 154.53 0)
(364.11 154.492 0)
(364.1 154.485 0)
(364.111 154.521 0)
(364.145 154.548 0)
(364.159 154.55 0)
(364.154 154.539 0)
(364.142 154.523 0)
(364.125 154.505 0)
(364.093 154.535 0)
(364.062 154.603 0)
(364.064 154.654 0)
(364.095 154.68 0)
(364.153 154.692 0)
(364.232 154.67 0)
(364.299 154.628 0)
(364.338 154.594 0)
(364.345 154.579 0)
(364.336 154.558 0)
(364.32 154.546 0)
(364.293 154.524 0)
(364.263 154.493 0)
(364.242 154.485 0)
(364.244 154.466 0)
(364.26 154.437 0)
(364.272 154.425 0)
(364.287 154.432 0)
(364.306 154.448 0)
(364.334 154.459 0)
(364.367 154.467 0)
(364.399 154.461 0)
(364.43 154.432 0)
(364.46 154.403 0)
(364.476 154.394 0)
(364.463 154.398 0)
(364.438 154.414 0)
(364.407 154.435 0)
(364.381 154.456 0)
(364.367 154.478 0)
(364.367 154.495 0)
(364.377 154.507 0)
(364.385 154.519 0)
(364.386 154.53 0)
(364.376 154.542 0)
(364.345 154.562 0)
(364.292 154.589 0)
(364.236 154.611 0)
(364.204 154.628 0)
(364.182 154.643 0)
(362.576 154.589 0)
(362.632 154.508 0)
(363.073 154.213 0)
(363.538 154.119 0)
(363.752 154.197 0)
(363.738 154.252 0)
(363.642 154.284 0)
(363.563 154.305 0)
(363.561 154.289 0)
(363.61 154.292 0)
(363.67 154.324 0)
(363.74 154.365 0)
(363.778 154.378 0)
(363.779 154.376 0)
(363.762 154.368 0)
(363.779 154.352 0)
(363.823 154.337 0)
(363.887 154.33 0)
(363.921 154.339 0)
(363.911 154.362 0)
(363.892 154.392 0)
(363.884 154.393 0)
(363.895 154.368 0)
(363.901 154.374 0)
(363.907 154.383 0)
(363.913 154.378 0)
(363.907 154.373 0)
(363.893 154.38 0)
(363.885 154.403 0)
(363.875 154.444 0)
(363.868 154.5 0)
(363.892 154.535 0)
(363.931 154.545 0)
(363.983 154.537 0)
(364.031 154.534 0)
(364.073 154.54 0)
(364.104 154.531 0)
(364.107 154.525 0)
(364.085 154.522 0)
(364.048 154.509 0)
(364.012 154.484 0)
(364.006 154.449 0)
(364.027 154.42 0)
(364.063 154.407 0)
(364.096 154.409 0)
(364.116 154.416 0)
(364.139 154.43 0)
(364.162 154.44 0)
(364.195 154.445 0)
(364.232 154.43 0)
(364.269 154.402 0)
(364.303 154.391 0)
(364.329 154.399 0)
(364.325 154.417 0)
(364.301 154.439 0)
(364.272 154.463 0)
(364.244 154.48 0)
(364.227 154.488 0)
(364.224 154.49 0)
(364.237 154.487 0)
(364.259 154.482 0)
(364.279 154.48 0)
(364.285 154.483 0)
(364.276 154.495 0)
(364.235 154.521 0)
(364.164 154.56 0)
(364.104 154.597 0)
(364.061 154.607 0)
(362.236 154.692 0)
(362.684 154.189 0)
(363.166 153.966 0)
(363.548 154.166 0)
(363.566 154.456 0)
(363.45 154.482 0)
(363.382 154.385 0)
(363.413 154.191 0)
(363.533 154.031 0)
(363.644 153.992 0)
(363.705 154.054 0)
(363.724 154.151 0)
(363.706 154.175 0)
(363.702 154.166 0)
(363.711 154.138 0)
(363.75 154.107 0)
(363.796 154.1 0)
(363.831 154.107 0)
(363.859 154.13 0)
(363.864 154.163 0)
(363.855 154.209 0)
(363.835 154.272 0)
(363.808 154.329 0)
(363.8 154.352 0)
(363.801 154.354 0)
(363.801 154.348 0)
(363.795 154.342 0)
(363.793 154.341 0)
(363.797 154.348 0)
(363.795 154.378 0)
(363.788 154.446 0)
(363.8 154.501 0)
(363.825 154.521 0)
(363.86 154.523 0)
(363.904 154.506 0)
(363.964 154.471 0)
(364.011 154.448 0)
(364.01 154.45 0)
(363.985 154.453 0)
(363.945 154.455 0)
(363.913 154.448 0)
(363.899 154.43 0)
(363.901 154.417 0)
(363.931 154.423 0)
(363.975 154.437 0)
(364 154.439 0)
(364.021 154.442 0)
(364.038 154.436 0)
(364.062 154.423 0)
(364.094 154.411 0)
(364.125 154.403 0)
(364.159 154.406 0)
(364.196 154.425 0)
(364.205 154.453 0)
(364.189 154.476 0)
(364.167 154.49 0)
(364.146 154.498 0)
(364.13 154.496 0)
(364.125 154.487 0)
(364.137 154.472 0)
(364.164 154.454 0)
(364.194 154.44 0)
(364.209 154.437 0)
(364.205 154.44 0)
(364.185 154.458 0)
(364.138 154.505 0)
(364.065 154.57 0)
(363.992 154.611 0)
(362.611 154.266 0)
(363.643 153.799 0)
(363.876 153.909 0)
(363.68 154.36 0)
(363.329 154.633 0)
(363.137 154.62 0)
(363.119 154.471 0)
(363.252 154.275 0)
(363.466 154.167 0)
(363.608 154.193 0)
(363.615 154.311 0)
(363.548 154.369 0)
(363.499 154.364 0)
(363.491 154.317 0)
(363.533 154.24 0)
(363.614 154.193 0)
(363.673 154.173 0)
(363.691 154.183 0)
(363.691 154.196 0)
(363.707 154.186 0)
(363.737 154.172 0)
(363.756 154.188 0)
(363.769 154.236 0)
(363.765 154.295 0)
(363.733 154.339 0)
(363.699 154.356 0)
(363.681 154.353 0)
(363.681 154.346 0)
(363.699 154.343 0)
(363.734 154.353 0)
(363.766 154.391 0)
(363.78 154.455 0)
(363.774 154.509 0)
(363.778 154.521 0)
(363.796 154.504 0)
(363.838 154.46 0)
(363.896 154.416 0)
(363.924 154.404 0)
(363.913 154.411 0)
(363.889 154.429 0)
(363.846 154.453 0)
(363.808 154.464 0)
(363.795 154.467 0)
(363.814 154.484 0)
(363.858 154.503 0)
(363.885 154.503 0)
(363.899 154.501 0)
(363.903 154.493 0)
(363.907 154.48 0)
(363.928 154.474 0)
(363.955 154.473 0)
(363.996 154.476 0)
(364.051 154.493 0)
(364.083 154.517 0)
(364.079 154.533 0)
(364.066 154.535 0)
(364.051 154.529 0)
(364.039 154.514 0)
(364.037 154.487 0)
(364.05 154.455 0)
(364.072 154.431 0)
(364.101 154.417 0)
(364.123 154.417 0)
(364.127 154.429 0)
(364.12 154.445 0)
(364.099 154.474 0)
(364.049 154.524 0)
(363.932 154.583 0)
(364.212 153.217 0)
(364.919 153.319 0)
(364.613 153.753 0)
(364.036 154.18 0)
(363.587 154.358 0)
(363.345 154.359 0)
(363.391 154.222 0)
(363.583 154.128 0)
(363.732 154.151 0)
(363.791 154.322 0)
(363.723 154.521 0)
(363.61 154.613 0)
(363.492 154.651 0)
(363.471 154.592 0)
(363.533 154.499 0)
(363.616 154.443 0)
(363.666 154.412 0)
(363.661 154.405 0)
(363.636 154.391 0)
(363.625 154.353 0)
(363.649 154.292 0)
(363.716 154.227 0)
(363.776 154.199 0)
(363.798 154.213 0)
(363.783 154.253 0)
(363.729 154.307 0)
(363.666 154.34 0)
(363.648 154.359 0)
(363.665 154.377 0)
(363.698 154.403 0)
(363.739 154.431 0)
(363.756 154.453 0)
(363.75 154.479 0)
(363.725 154.496 0)
(363.724 154.496 0)
(363.736 154.49 0)
(363.777 154.466 0)
(363.825 154.442 0)
(363.829 154.439 0)
(363.815 154.442 0)
(363.774 154.453 0)
(363.729 154.481 0)
(363.718 154.505 0)
(363.738 154.53 0)
(363.787 154.544 0)
(363.82 154.539 0)
(363.824 154.537 0)
(363.814 154.539 0)
(363.795 154.543 0)
(363.804 154.547 0)
(363.834 154.552 0)
(363.883 154.551 0)
(363.954 154.554 0)
(364.003 154.554 0)
(364.006 154.551 0)
(363.993 154.541 0)
(363.966 154.525 0)
(363.936 154.502 0)
(363.925 154.473 0)
(363.931 154.449 0)
(363.949 154.432 0)
(363.986 154.419 0)
(364.034 154.413 0)
(364.062 154.422 0)
(364.061 154.435 0)
(364.047 154.45 0)
(364.018 154.461 0)
(363.877 154.509 0)
(365.52 153.104 0)
(365.061 153.782 0)
(364.347 154.558 0)
(363.997 154.985 0)
(363.99 154.803 0)
(363.984 154.437 0)
(364.014 154.162 0)
(364.012 154.098 0)
(364.018 154.156 0)
(364.035 154.377 0)
(364.011 154.557 0)
(363.951 154.654 0)
(363.833 154.723 0)
(363.777 154.649 0)
(363.805 154.58 0)
(363.831 154.57 0)
(363.824 154.578 0)
(363.78 154.592 0)
(363.736 154.579 0)
(363.701 154.537 0)
(363.713 154.462 0)
(363.794 154.36 0)
(363.903 154.284 0)
(363.956 154.269 0)
(363.972 154.285 0)
(363.947 154.322 0)
(363.873 154.375 0)
(363.825 154.418 0)
(363.828 154.447 0)
(363.838 154.473 0)
(363.849 154.495 0)
(363.85 154.502 0)
(363.835 154.509 0)
(363.8 154.513 0)
(363.784 154.501 0)
(363.79 154.483 0)
(363.825 154.447 0)
(363.866 154.408 0)
(363.871 154.394 0)
(363.858 154.392 0)
(363.823 154.412 0)
(363.787 154.457 0)
(363.782 154.505 0)
(363.798 154.556 0)
(363.826 154.594 0)
(363.837 154.6 0)
(363.831 154.597 0)
(363.816 154.592 0)
(363.792 154.594 0)
(363.794 154.603 0)
(363.826 154.613 0)
(363.872 154.618 0)
(363.937 154.616 0)
(363.989 154.595 0)
(363.998 154.569 0)
(363.984 154.532 0)
(363.948 154.491 0)
(363.902 154.463 0)
(363.881 154.445 0)
(363.884 154.441 0)
(363.898 154.447 0)
(363.933 154.458 0)
(363.985 154.462 0)
(364.03 154.46 0)
(364.041 154.46 0)
(364.028 154.462 0)
(364.002 154.451 0)
(363.877 154.475 0)
(365.108 154.52 0)
(363.621 155.486 0)
(363.806 155.432 0)
(364.422 155.101 0)
(364.576 154.579 0)
(364.453 154.295 0)
(364.314 154.298 0)
(364.213 154.288 0)
(364.17 154.394 0)
(364.25 154.693 0)
(364.275 154.809 0)
(364.256 154.859 0)
(364.162 154.787 0)
(364.047 154.677 0)
(364.013 154.656 0)
(364.005 154.663 0)
(363.985 154.687 0)
(363.914 154.693 0)
(363.845 154.69 0)
(363.812 154.62 0)
(363.839 154.503 0)
(363.922 154.426 0)
(364.061 154.395 0)
(364.151 154.43 0)
(364.168 154.476 0)
(364.142 154.56 0)
(364.067 154.632 0)
(364.016 154.664 0)
(364.02 154.661 0)
(364.024 154.647 0)
(364.026 154.635 0)
(364.013 154.625 0)
(363.988 154.62 0)
(363.947 154.604 0)
(363.922 154.567 0)
(363.93 154.516 0)
(363.963 154.46 0)
(363.998 154.409 0)
(364.007 154.4 0)
(364.001 154.414 0)
(363.979 154.456 0)
(363.948 154.517 0)
(363.938 154.571 0)
(363.944 154.62 0)
(363.959 154.642 0)
(363.957 154.634 0)
(363.947 154.628 0)
(363.93 154.622 0)
(363.91 154.627 0)
(363.905 154.642 0)
(363.936 154.651 0)
(363.978 154.656 0)
(364.024 154.652 0)
(364.061 154.64 0)
(364.063 154.622 0)
(364.042 154.592 0)
(364.006 154.548 0)
(363.963 154.507 0)
(363.938 154.487 0)
(363.942 154.485 0)
(363.956 154.494 0)
(363.981 154.517 0)
(364.022 154.538 0)
(364.066 154.541 0)
(364.094 154.529 0)
(364.092 154.515 0)
(364.067 154.491 0)
(363.969 154.503 0)
(362.206 156.622 0)
(362.146 155.785 0)
(363.954 155.462 0)
(364.777 154.867 0)
(364.827 154.552 0)
(364.535 154.544 0)
(364.248 154.665 0)
(364.072 154.685 0)
(364.274 154.659 0)
(364.514 154.677 0)
(364.531 154.703 0)
(364.438 154.754 0)
(364.252 154.793 0)
(364.181 154.754 0)
(364.178 154.707 0)
(364.206 154.662 0)
(364.171 154.628 0)
(364.098 154.618 0)
(363.98 154.578 0)
(363.893 154.525 0)
(363.894 154.526 0)
(363.954 154.542 0)
(364.128 154.576 0)
(364.264 154.626 0)
(364.304 154.664 0)
(364.311 154.719 0)
(364.246 154.77 0)
(364.189 154.801 0)
(364.172 154.805 0)
(364.159 154.804 0)
(364.154 154.783 0)
(364.14 154.753 0)
(364.122 154.702 0)
(364.086 154.631 0)
(364.056 154.57 0)
(364.059 154.524 0)
(364.082 154.49 0)
(364.124 154.465 0)
(364.156 154.464 0)
(364.164 154.479 0)
(364.16 154.515 0)
(364.136 154.559 0)
(364.121 154.586 0)
(364.114 154.608 0)
(364.112 154.622 0)
(364.103 154.625 0)
(364.088 154.63 0)
(364.073 154.64 0)
(364.062 154.657 0)
(364.058 154.692 0)
(364.071 154.724 0)
(364.099 154.741 0)
(364.119 154.747 0)
(364.142 154.736 0)
(364.153 154.701 0)
(364.146 154.646 0)
(364.12 154.582 0)
(364.086 154.54 0)
(364.061 154.53 0)
(364.057 154.541 0)
(364.065 154.561 0)
(364.08 154.59 0)
(364.107 154.62 0)
(364.141 154.638 0)
(364.174 154.63 0)
(364.192 154.618 0)
(364.186 154.581 0)
(364.108 154.569 0)
(357.921 154.161 0)
(363.249 154.301 0)
(365.416 154.517 0)
(365.128 154.248 0)
(364.507 154.303 0)
(364.126 154.806 0)
(363.988 154.948 0)
(364.051 154.877 0)
(364.404 154.756 0)
(364.582 154.734 0)
(364.559 154.767 0)
(364.407 154.802 0)
(364.274 154.781 0)
(364.274 154.75 0)
(364.322 154.702 0)
(364.381 154.626 0)
(364.324 154.574 0)
(364.236 154.535 0)
(364.067 154.489 0)
(363.944 154.479 0)
(363.962 154.496 0)
(364.044 154.535 0)
(364.219 154.622 0)
(364.347 154.705 0)
(364.391 154.749 0)
(364.386 154.8 0)
(364.31 154.836 0)
(364.254 154.835 0)
(364.238 154.828 0)
(364.229 154.813 0)
(364.232 154.772 0)
(364.219 154.723 0)
(364.197 154.662 0)
(364.16 154.595 0)
(364.136 154.546 0)
(364.145 154.516 0)
(364.174 154.499 0)
(364.231 154.492 0)
(364.286 154.5 0)
(364.309 154.506 0)
(364.315 154.513 0)
(364.287 154.518 0)
(364.259 154.53 0)
(364.237 154.549 0)
(364.221 154.578 0)
(364.208 154.608 0)
(364.193 154.643 0)
(364.184 154.669 0)
(364.187 154.692 0)
(364.192 154.728 0)
(364.197 154.76 0)
(364.218 154.768 0)
(364.235 154.754 0)
(364.244 154.725 0)
(364.244 154.688 0)
(364.23 154.654 0)
(364.205 154.623 0)
(364.18 154.602 0)
(364.164 154.602 0)
(364.157 154.619 0)
(364.159 154.645 0)
(364.17 154.673 0)
(364.185 154.701 0)
(364.204 154.722 0)
(364.223 154.721 0)
(364.244 154.711 0)
(364.259 154.653 0)
(364.211 154.599 0)
(389.77 142.722 0)
(368.521 155.46 0)
(366.544 154.803 0)
(364.439 154.506 0)
(363.567 154.925 0)
(363.703 154.9 0)
(363.92 154.743 0)
(364.394 154.593 0)
(364.696 154.745 0)
(364.664 154.866 0)
(364.425 154.84 0)
(364.222 154.769 0)
(364.222 154.792 0)
(364.268 154.783 0)
(364.409 154.731 0)
(364.463 154.63 0)
(364.394 154.557 0)
(364.29 154.482 0)
(364.106 154.421 0)
(363.998 154.441 0)
(364.028 154.485 0)
(364.121 154.571 0)
(364.302 154.699 0)
(364.42 154.787 0)
(364.461 154.829 0)
(364.437 154.871 0)
(364.339 154.887 0)
(364.267 154.864 0)
(364.238 154.836 0)
(364.23 154.786 0)
(364.242 154.72 0)
(364.233 154.651 0)
(364.213 154.591 0)
(364.187 154.535 0)
(364.176 154.513 0)
(364.194 154.52 0)
(364.228 154.54 0)
(364.28 154.542 0)
(364.344 154.541 0)
(364.378 154.548 0)
(364.386 154.559 0)
(364.361 154.566 0)
(364.333 154.574 0)
(364.304 154.58 0)
(364.287 154.593 0)
(364.278 154.611 0)
(364.271 154.634 0)
(364.273 154.646 0)
(364.282 154.664 0)
(364.285 154.683 0)
(364.288 154.695 0)
(364.303 154.699 0)
(364.316 154.696 0)
(364.314 154.686 0)
(364.302 154.679 0)
(364.282 154.676 0)
(364.259 154.675 0)
(364.241 154.672 0)
(364.233 154.678 0)
(364.228 154.685 0)
(364.229 154.7 0)
(364.239 154.719 0)
(364.253 154.735 0)
(364.262 154.746 0)
(364.267 154.748 0)
(364.275 154.742 0)
(364.283 154.679 0)
(364.249 154.577 0)
(496.415 73.6801 0)
(392.841 144.72 0)
(364.621 153.825 0)
(362.053 154.422 0)
(363.012 154.971 0)
(363.407 154.59 0)
(364.46 154.117 0)
(365.142 154.489 0)
(365.171 154.803 0)
(364.726 154.828 0)
(364.173 154.606 0)
(364.049 154.577 0)
(364.125 154.646 0)
(364.244 154.741 0)
(364.431 154.761 0)
(364.444 154.71 0)
(364.383 154.657 0)
(364.276 154.544 0)
(364.111 154.458 0)
(364.058 154.475 0)
(364.113 154.528 0)
(364.218 154.632 0)
(364.381 154.757 0)
(364.477 154.828 0)
(364.491 154.862 0)
(364.448 154.883 0)
(364.356 154.879 0)
(364.288 154.857 0)
(364.238 154.814 0)
(364.214 154.752 0)
(364.221 154.674 0)
(364.217 154.595 0)
(364.199 154.542 0)
(364.187 154.515 0)
(364.189 154.527 0)
(364.211 154.555 0)
(364.253 154.584 0)
(364.306 154.613 0)
(364.358 154.625 0)
(364.4 154.626 0)
(364.414 154.607 0)
(364.404 154.58 0)
(364.38 154.565 0)
(364.35 154.555 0)
(364.335 154.55 0)
(364.331 154.562 0)
(364.328 154.584 0)
(364.335 154.6 0)
(364.344 154.625 0)
(364.346 154.648 0)
(364.351 154.655 0)
(364.362 154.654 0)
(364.369 154.653 0)
(364.368 154.655 0)
(364.356 154.675 0)
(364.336 154.698 0)
(364.315 154.704 0)
(364.302 154.703 0)
(364.294 154.701 0)
(364.29 154.697 0)
(364.292 154.696 0)
(364.299 154.705 0)
(364.308 154.718 0)
(364.313 154.729 0)
(364.312 154.727 0)
(364.31 154.716 0)
(364.298 154.678 0)
(364.228 154.598 0)
(574.963 4.99194 0)
(492.095 74.0989 0)
(393.852 140.918 0)
(363.409 153.318 0)
(363.804 155.864 0)
(363.859 153.982 0)
(365.228 153.979 0)
(365.79 154.65 0)
(365.471 155.284 0)
(364.46 154.99 0)
(363.939 154.454 0)
(364.006 154.349 0)
(364.084 154.379 0)
(364.25 154.524 0)
(364.405 154.674 0)
(364.397 154.724 0)
(364.361 154.715 0)
(364.247 154.608 0)
(364.139 154.508 0)
(364.156 154.524 0)
(364.229 154.577 0)
(364.338 154.665 0)
(364.468 154.76 0)
(364.526 154.806 0)
(364.505 154.819 0)
(364.444 154.827 0)
(364.351 154.852 0)
(364.272 154.837 0)
(364.211 154.8 0)
(364.166 154.745 0)
(364.158 154.673 0)
(364.169 154.597 0)
(364.163 154.555 0)
(364.165 154.539 0)
(364.191 154.554 0)
(364.231 154.605 0)
(364.272 154.662 0)
(364.314 154.708 0)
(364.361 154.729 0)
(364.396 154.728 0)
(364.406 154.698 0)
(364.397 154.647 0)
(364.378 154.602 0)
(364.362 154.565 0)
(364.354 154.54 0)
(364.355 154.54 0)
(364.361 154.552 0)
(364.375 154.569 0)
(364.387 154.596 0)
(364.387 154.619 0)
(364.388 154.629 0)
(364.4 154.634 0)
(364.404 154.643 0)
(364.403 154.661 0)
(364.4 154.679 0)
(364.388 154.691 0)
(364.372 154.69 0)
(364.358 154.684 0)
(364.347 154.671 0)
(364.342 154.658 0)
(364.341 154.645 0)
(364.344 154.643 0)
(364.344 154.654 0)
(364.336 154.673 0)
(364.321 154.686 0)
(364.306 154.693 0)
(364.284 154.684 0)
(364.2 154.623 0)
(579.977 0.0267153 0)
(574.404 5.15248 0)
(499.912 71.6498 0)
(385.45 141.379 0)
(364.449 157.285 0)
(363.807 153.957 0)
(365.402 154.271 0)
(366.143 155.37 0)
(365.126 155.629 0)
(364.008 154.982 0)
(363.846 154.385 0)
(364.012 154.163 0)
(364.183 154.071 0)
(364.363 154.262 0)
(364.429 154.481 0)
(364.437 154.586 0)
(364.369 154.6 0)
(364.252 154.494 0)
(364.204 154.463 0)
(364.256 154.51 0)
(364.339 154.583 0)
(364.447 154.676 0)
(364.536 154.751 0)
(364.547 154.799 0)
(364.502 154.807 0)
(364.426 154.814 0)
(364.33 154.823 0)
(364.24 154.81 0)
(364.173 154.781 0)
(364.119 154.741 0)
(364.097 154.687 0)
(364.106 154.629 0)
(364.117 154.592 0)
(364.132 154.576 0)
(364.175 154.598 0)
(364.231 154.657 0)
(364.286 154.723 0)
(364.325 154.772 0)
(364.366 154.794 0)
(364.392 154.791 0)
(364.398 154.763 0)
(364.387 154.709 0)
(364.366 154.656 0)
(364.351 154.613 0)
(364.343 154.581 0)
(364.348 154.562 0)
(364.364 154.563 0)
(364.38 154.571 0)
(364.392 154.593 0)
(364.388 154.623 0)
(364.389 154.649 0)
(364.397 154.657 0)
(364.409 154.664 0)
(364.417 154.67 0)
(364.421 154.672 0)
(364.42 154.666 0)
(364.41 154.656 0)
(364.394 154.637 0)
(364.377 154.609 0)
(364.368 154.581 0)
(364.366 154.559 0)
(364.37 154.548 0)
(364.375 154.555 0)
(364.371 154.576 0)
(364.347 154.612 0)
(364.314 154.655 0)
(364.287 154.673 0)
(364.171 154.624 0)
(580 1.0646e-05 0)
(579.975 0.027388 0)
(574.944 5.08577 0)
(504.508 66.1664 0)
(389.537 139.682 0)
(365.63 152.68 0)
(365.541 155.174 0)
(365.831 155.655 0)
(364.551 155.541 0)
(363.823 154.985 0)
(363.965 154.531 0)
(364.111 154.325 0)
(364.231 154.204 0)
(364.419 154.353 0)
(364.5 154.44 0)
(364.527 154.486 0)
(364.398 154.43 0)
(364.262 154.385 0)
(364.259 154.44 0)
(364.33 154.505 0)
(364.416 154.585 0)
(364.506 154.668 0)
(364.554 154.728 0)
(364.546 154.752 0)
(364.489 154.737 0)
(364.407 154.726 0)
(364.312 154.723 0)
(364.224 154.716 0)
(364.147 154.708 0)
(364.091 154.696 0)
(364.058 154.68 0)
(364.051 154.655 0)
(364.063 154.643 0)
(364.093 154.637 0)
(364.149 154.64 0)
(364.22 154.675 0)
(364.284 154.732 0)
(364.32 154.777 0)
(364.354 154.792 0)
(364.373 154.786 0)
(364.377 154.764 0)
(364.366 154.717 0)
(364.344 154.671 0)
(364.326 154.639 0)
(364.315 154.616 0)
(364.315 154.6 0)
(364.328 154.59 0)
(364.35 154.594 0)
(364.356 154.604 0)
(364.353 154.636 0)
(364.35 154.672 0)
(364.359 154.686 0)
(364.372 154.689 0)
(364.39 154.686 0)
(364.406 154.67 0)
(364.416 154.641 0)
(364.41 154.609 0)
(364.391 154.571 0)
(364.374 154.528 0)
(364.374 154.495 0)
(364.385 154.47 0)
(364.395 154.46 0)
(364.398 154.466 0)
(364.397 154.497 0)
(364.375 154.538 0)
(364.331 154.599 0)
(364.282 154.637 0)
(364.127 154.594 0)
(580 4.006e-09 0)
(580 1.08698e-05 0)
(579.979 0.0229636 0)
(575.715 4.47479 0)
(509.041 62.1639 0)
(385.275 141.505 0)
(369.126 154.513 0)
(366.331 155.739 0)
(364.579 155.453 0)
(364.065 155.258 0)
(364.186 155.143 0)
(364.062 154.758 0)
(364.193 154.703 0)
(364.421 154.918 0)
(364.494 154.912 0)
(364.447 154.702 0)
(364.319 154.427 0)
(364.255 154.37 0)
(364.302 154.44 0)
(364.365 154.53 0)
(364.436 154.598 0)
(364.493 154.633 0)
(364.516 154.652 0)
(364.505 154.64 0)
(364.463 154.603 0)
(364.386 154.582 0)
(364.309 154.575 0)
(364.228 154.586 0)
(364.146 154.612 0)
(364.082 154.644 0)
(364.051 154.663 0)
(364.03 154.682 0)
(364.037 154.692 0)
(364.082 154.69 0)
(364.149 154.676 0)
(364.219 154.687 0)
(364.27 154.713 0)
(364.298 154.725 0)
(364.325 154.73 0)
(364.333 154.724 0)
(364.331 154.716 0)
(364.323 154.693 0)
(364.311 154.666 0)
(364.295 154.643 0)
(364.285 154.632 0)
(364.275 154.624 0)
(364.277 154.616 0)
(364.292 154.611 0)
(364.303 154.629 0)
(364.304 154.655 0)
(364.298 154.674 0)
(364.294 154.69 0)
(364.306 154.697 0)
(364.324 154.69 0)
(364.343 154.66 0)
(364.364 154.609 0)
(364.373 154.547 0)
(364.371 154.497 0)
(364.367 154.466 0)
(364.363 154.442 0)
(364.369 154.423 0)
(364.382 154.418 0)
(364.392 154.431 0)
(364.396 154.462 0)
(364.386 154.496 0)
(364.349 154.539 0)
(364.269 154.571 0)
(364.077 154.545 0)
(580 2.90518e-13 0)
(580 3.64835e-09 0)
(580 8.5476e-06 0)
(579.984 0.0183635 0)
(576.31 3.76662 0)
(510.961 57.7496 0)
(403.019 134.224 0)
(369.705 152.816 0)
(364.036 155.033 0)
(363.515 155.848 0)
(363.705 155.312 0)
(363.748 154.745 0)
(364.227 155.152 0)
(364.416 155.459 0)
(364.259 155.414 0)
(364.119 155.002 0)
(364.159 154.541 0)
(364.25 154.464 0)
(364.283 154.515 0)
(364.296 154.606 0)
(364.324 154.624 0)
(364.36 154.604 0)
(364.384 154.583 0)
(364.403 154.535 0)
(364.412 154.484 0)
(364.372 154.462 0)
(364.323 154.459 0)
(364.252 154.48 0)
(364.153 154.52 0)
(364.084 154.574 0)
(364.061 154.631 0)
(364.041 154.683 0)
(364.055 154.707 0)
(364.115 154.708 0)
(364.19 154.677 0)
(364.254 154.635 0)
(364.275 154.633 0)
(364.279 154.625 0)
(364.292 154.61 0)
(364.293 154.601 0)
(364.293 154.6 0)
(364.29 154.607 0)
(364.286 154.612 0)
(364.276 154.62 0)
(364.263 154.629 0)
(364.245 154.626 0)
(364.234 154.617 0)
(364.235 154.606 0)
(364.248 154.612 0)
(364.246 154.631 0)
(364.244 154.638 0)
(364.241 154.646 0)
(364.242 154.646 0)
(364.258 154.631 0)
(364.277 154.599 0)
(364.293 154.554 0)
(364.31 154.513 0)
(364.322 154.48 0)
(364.328 154.457 0)
(364.327 154.442 0)
(364.328 154.434 0)
(364.339 154.434 0)
(364.359 154.442 0)
(364.369 154.456 0)
(364.367 154.467 0)
(364.344 154.486 0)
(364.279 154.494 0)
(364.036 154.479 0)
(580 -7.321e-13 0)
(580 -6.85723e-13 0)
(580 2.65655e-09 0)
(580 6.65532e-06 0)
(579.987 0.0145716 0)
(577.118 2.88167 0)
(519.04 51.9903 0)
(402.584 134.225 0)
(360.759 153.982 0)
(362.82 156.921 0)
(363.009 153.703 0)
(364.437 153.604 0)
(365.029 154.773 0)
(364.665 155.67 0)
(364.023 155.416 0)
(363.912 154.79 0)
(364.087 154.554 0)
(364.194 154.564 0)
(364.207 154.65 0)
(364.185 154.678 0)
(364.172 154.669 0)
(364.162 154.623 0)
(364.177 154.573 0)
(364.225 154.487 0)
(364.313 154.399 0)
(364.336 154.369 0)
(364.298 154.369 0)
(364.229 154.398 0)
(364.121 154.466 0)
(364.041 154.56 0)
(364.034 154.655 0)
(364.048 154.699 0)
(364.101 154.706 0)
(364.173 154.681 0)
(364.236 154.627 0)
(364.267 154.57 0)
(364.289 154.521 0)
(364.286 154.483 0)
(364.284 154.466 0)
(364.277 154.465 0)
(364.28 154.479 0)
(364.287 154.504 0)
(364.298 154.527 0)
(364.295 154.548 0)
(364.269 154.569 0)
(364.243 154.577 0)
(364.218 154.567 0)
(364.204 154.555 0)
(364.212 154.548 0)
(364.216 154.558 0)
(364.216 154.563 0)
(364.215 154.577 0)
(364.207 154.595 0)
(364.208 154.591 0)
(364.221 154.57 0)
(364.235 154.542 0)
(364.249 154.518 0)
(364.261 154.498 0)
(364.27 154.488 0)
(364.273 154.489 0)
(364.279 154.494 0)
(364.294 154.497 0)
(364.316 154.491 0)
(364.332 154.482 0)
(364.333 154.474 0)
(364.312 154.469 0)
(364.253 154.451 0)
(363.979 154.427 0)
(580 -1.11585e-12 0)
(580 -1.16306e-12 0)
(580 -2.30008e-13 0)
(580 1.93966e-09 0)
(580 5.1594e-06 0)
(579.992 0.0088961 0)
(577.709 2.26348 0)
(520.501 51.2265 0)
(405.83 130.214 0)
(368.813 154.375 0)
(364.773 153.181 0)
(365.713 153.814 0)
(366.194 154.868 0)
(364.916 155.296 0)
(363.974 154.71 0)
(363.994 154.388 0)
(364.111 154.51 0)
(364.153 154.719 0)
(364.206 154.797 0)
(364.194 154.79 0)
(364.172 154.752 0)
(364.104 154.686 0)
(364.076 154.627 0)
(364.077 154.558 0)
(364.156 154.463 0)
(364.242 154.396 0)
(364.222 154.384 0)
(364.168 154.408 0)
(364.073 154.482 0)
(363.977 154.609 0)
(363.971 154.724 0)
(364.021 154.762 0)
(364.093 154.742 0)
(364.183 154.677 0)
(364.259 154.585 0)
(364.301 154.496 0)
(364.308 154.413 0)
(364.288 154.356 0)
(364.252 154.345 0)
(364.23 154.367 0)
(364.247 154.398 0)
(364.282 154.432 0)
(364.318 154.462 0)
(364.328 154.481 0)
(364.307 154.485 0)
(364.27 154.492 0)
(364.228 154.478 0)
(364.193 154.457 0)
(364.193 154.449 0)
(364.215 154.461 0)
(364.22 154.469 0)
(364.227 154.484 0)
(364.224 154.513 0)
(364.206 154.541 0)
(364.197 154.548 0)
(364.202 154.545 0)
(364.21 154.542 0)
(364.225 154.543 0)
(364.244 154.551 0)
(364.252 154.569 0)
(364.256 154.581 0)
(364.265 154.58 0)
(364.283 154.567 0)
(364.301 154.542 0)
(364.3 154.51 0)
(364.272 154.487 0)
(364.213 154.464 0)
(363.911 154.41 0)
(580 -1.12886e-12 0)
(580 -1.01614e-12 0)
(580 -6.47754e-13 0)
(580 3.44403e-13 0)
(580 1.2881e-09 0)
(580 3.16721e-06 0)
(579.994 0.00608516 0)
(577.859 2.24545 0)
(535.383 41.1063 0)
(407.122 129.894 0)
(371.644 147.826 0)
(366.478 154.66 0)
(364.244 155.304 0)
(363.865 154.245 0)
(364.092 153.897 0)
(364.319 154.131 0)
(364.289 154.536 0)
(364.297 154.793 0)
(364.39 154.769 0)
(364.464 154.765 0)
(364.44 154.754 0)
(364.238 154.736 0)
(364.109 154.694 0)
(364.076 154.631 0)
(364.107 154.535 0)
(364.17 154.467 0)
(364.154 154.448 0)
(364.109 154.467 0)
(364.049 154.541 0)
(363.971 154.666 0)
(363.967 154.775 0)
(364.015 154.803 0)
(364.072 154.786 0)
(364.153 154.704 0)
(364.259 154.571 0)
(364.327 154.457 0)
(364.315 154.396 0)
(364.287 154.358 0)
(364.246 154.345 0)
(364.21 154.382 0)
(364.219 154.404 0)
(364.265 154.421 0)
(364.31 154.44 0)