/*--------------------------------*- C++ -*----------------------------------*\
| =========                 |                                                 |
| \\      /  F ield         | OpenFOAM: The Open Source CFD Toolbox           |
|  \\    /   O peration     | Version:  2306                                  |
|   \\  /    A nd           | Website:  www.openfoam.com                      |
|    \\/     M anipulation  |                                                 |
\*---------------------------------------------------------------------------*/
FoamFile
{
    version     2.0;
    format      ascii;
    arch        "LSB;label=32;scalar=64";
    class       volVectorField;
    location    "2e-05";
    object      U;
}
// * * * * * * * * * * * * * * * * * * * * * * * * * * * * * * * * * * * * * //

dimensions      [0 1 -1 0 0 0 0];

internalField   nonuniform List<vector> 
8941
(
(580 4.30775e-15 0)
(580 1.57716e-13 0)
(580 1.79566e-13 0)
(580 3.36688e-13 0)
(580 7.07907e-14 0)
(580 1.05929e-13 0)
(580 4.26235e-14 0)
(580 -2.35878e-13 0)
(580 -2.66056e-13 0)
(580 -5.20668e-13 0)
(580 -3.97887e-13 0)
(580 -6.07911e-14 0)
(580 9.88966e-15 0)
(580 -1.84464e-13 0)
(580 -9.47252e-14 0)
(580 -1.81082e-13 0)
(580 -6.9213e-14 0)
(580 -8.60343e-15 0)
(580 2.01879e-13 0)
(580 1.23689e-14 0)
(580 -3.70805e-13 0)
(580 -3.80276e-13 0)
(580 -4.44588e-13 0)
(580 -3.38116e-13 0)
(580 -6.00194e-14 0)
(580 -1.81172e-13 0)
(580 -3.19777e-13 0)
(580 -5.82165e-13 0)
(580 -7.34183e-13 0)
(580 -6.57384e-13 0)
(580 -6.26042e-13 0)
(580 -4.24765e-13 0)
(580 -4.72161e-13 0)
(580 -4.85308e-13 0)
(580 -5.48117e-13 0)
(580 -6.07916e-13 0)
(580 -1.65386e-13 0)
(580 3.81089e-13 0)
(580 5.87235e-13 0)
(580 5.65606e-13 0)
(580 6.28896e-13 0)
(580 8.68497e-13 0)
(580 6.02476e-13 0)
(580 5.2141e-13 0)
(580 3.32754e-13 0)
(580 3.55253e-13 0)
(580 4.25288e-13 0)
(580 4.91831e-13 0)
(580 5.98034e-13 0)
(580 6.84761e-13 0)
(580 1.9501e-13 0)
(580 -1.02556e-13 0)
(580 -1.95072e-13 0)
(580 -1.73189e-13 0)
(580 -2.97017e-13 0)
(580 -6.62081e-14 0)
(580 1.51754e-13 0)
(580 2.33307e-13 0)
(580 4.33004e-13 0)
(580 2.48766e-13 0)
(580 8.26207e-14 0)
(580 -1.0232e-13 0)
(580 -2.26831e-13 0)
(580 -3.77135e-13 0)
(580 -1.32035e-13 0)
(580 -6.05629e-14 0)
(580 -1.30394e-13 0)
(580 -8.83394e-14 0)
(580 1.30914e-15 0)
(580 1.87831e-13 0)
(580 2.33344e-13 0)
(580 3.75425e-14 0)
(580 -4.72186e-15 0)
(580 -1.67028e-14 0)
(580 -8.69005e-14 0)
(580 1.27239e-14 0)
(580 -1.30716e-13 0)
(580 -6.94235e-14 0)
(580 -2.43799e-13 0)
(580 -3.62147e-13 0)
(580 7.58709e-14 0)
(580 2.92187e-13 0)
(580 4.96949e-13 0)
(580 3.76632e-13 0)
(580 4.90715e-13 0)
(580 2.50313e-13 0)
(580 1.68654e-13 0)
(580 -3.171e-13 0)
(580 -6.0614e-13 0)
(580 -7.2744e-13 0)
(580 -6.94227e-13 0)
(580 -3.60913e-13 0)
(580 -4.88147e-13 0)
(580 -6.88665e-13 0)
(580 -4.94884e-13 0)
(580 -3.39966e-13 0)
(580 -3.09902e-13 0)
(580 4.74718e-14 0)
(580 1.8426e-13 0)
(580 -1.09609e-13 0)
(580 -2.16774e-13 0)
(580 -3.84197e-13 0)
(580 -4.5638e-13 0)
(580 -3.75748e-13 0)
(580 -4.43238e-13 0)
(580 -7.30789e-13 0)
(580 -9.58312e-13 0)
(580 -1.32665e-12 0)
(580 -1.20621e-12 0)
(580 -1.10917e-12 0)
(580 -1.20331e-12 0)
(580 -1.16455e-12 0)
(580 -9.88985e-13 0)
(580 -9.07723e-13 0)
(580 -7.63742e-13 0)
(580 -3.98595e-13 0)
(580 1.28762e-13 0)
(580 9.41364e-13 0)
(580 1.12673e-12 0)
(580 7.50841e-13 0)
(580 5.33984e-13 0)
(580 7.14955e-13 0)
(580 7.58175e-13 0)
(580 7.81012e-13 0)
(580 6.12023e-13 0)
(580 3.92101e-13 0)
(580 3.64104e-13 0)
(580 3.01757e-13 0)
(580 2.2006e-13 0)
(580 3.39585e-14 0)
(580 -3.57777e-13 0)
(580 -5.77586e-13 0)
(580 -9.29091e-13 0)
(580 -8.49941e-13 0)
(580 -7.58482e-13 0)
(580 -3.3808e-13 0)
(580 4.23049e-13 0)
(580 5.11241e-13 0)
(580 5.67155e-13 0)
(580 3.54471e-13 0)
(580 -2.03835e-14 0)
(580 -1.58837e-13 0)
(580 -4.33133e-13 0)
(580 -7.60962e-13 0)
(580 -3.86896e-13 0)
(580 1.46294e-14 0)
(580 1.75634e-13 0)
(580 2.74731e-13 0)
(580 1.37114e-14 0)
(580 -9.4396e-14 0)
(580 1.80321e-13 0)
(580 -1.58406e-13 0)
(580 -5.71315e-13 0)
(580 -2.41754e-13 0)
(580 -2.67612e-15 0)
(580 1.63709e-13 0)
(580 -1.40274e-13 0)
(580 -8.62196e-14 0)
(580 -2.72584e-13 0)
(580 -9.46943e-13 0)
(580 -1.69349e-16 0)
(580 4.71441e-14 0)
(580 3.36707e-13 0)
(580 4.41434e-13 0)
(580 8.44438e-13 0)
(580 9.03578e-13 0)
(580 9.0667e-13 0)
(580 7.82593e-13 0)
(580 3.66743e-13 0)
(580 3.24268e-13 0)
(580 1.17804e-13 0)
(580 -2.44173e-13 0)
(580 -9.32503e-14 0)
(580 1.83666e-13 0)
(580 -4.18697e-14 0)
(580 8.33276e-15 0)
(580 -1.38202e-13 0)
(580 -3.62462e-13 0)
(580 -6.00231e-13 0)
(580 -4.58837e-13 0)
(580 1.10922e-13 0)
(580 4.98756e-14 0)
(580 -2.14009e-15 0)
(580 4.41279e-14 0)
(580 8.716e-14 0)
(580 2.48383e-14 0)
(580 -2.36038e-13 0)
(580 -3.92356e-13 0)
(580 -5.06503e-13 0)
(580 -5.7846e-13 0)
(580 -8.38307e-13 0)
(580 -1.29727e-12 0)
(580 -1.2618e-12 0)
(580 -8.87766e-13 0)
(580 -7.23038e-13 0)
(580 -2.59942e-13 0)
(580 1.32968e-14 0)
(580 2.06724e-13 0)
(580 3.9708e-13 0)
(580 6.29658e-13 0)
(580 3.6717e-13 0)
(580 4.52828e-13 0)
(580 7.95851e-13 0)
(580 9.45072e-13 0)
(580 1.13486e-12 0)
(580 8.64575e-13 0)
(580 6.83765e-13 0)
(580 4.01204e-13 0)
(580 2.76687e-13 0)
(580 1.70226e-13 0)
(580 4.00064e-13 0)
(580 2.86723e-13 0)
(580 9.05144e-14 0)
(580 -1.1901e-13 0)
(580 -1.16861e-13 0)
(580 2.69646e-13 0)
(580 7.58934e-13 0)
(580 8.70752e-13 0)
(580 6.72318e-13 0)
(580 7.77278e-13 0)
(580 8.15552e-13 0)
(580 9.10046e-13 0)
(580 7.58786e-13 0)
(580 3.2084e-13 0)
(580 2.36852e-13 0)
(580 4.21197e-13 0)
(580 2.54611e-14 0)
(580 1.71938e-13 0)
(580 5.5312e-13 0)
(580 4.29562e-13 0)
(580 3.17279e-13 0)
(580 7.94708e-14 0)
(580 -7.42988e-13 0)
(580 -7.13896e-13 0)
(580 -4.4549e-13 0)
(580 -2.79337e-13 0)
(580 -2.69486e-13 0)
(580 -2.45029e-13 0)
(580 -5.13722e-14 0)
(580 -1.037e-12 0)
(580 9.07708e-14 0)
(580 1.60786e-14 0)
(580 3.17856e-13 0)
(580 3.21329e-13 0)
(580 2.32927e-13 0)
(580 5.72448e-13 0)
(580 8.77624e-13 0)
(580 7.38735e-13 0)
(580 4.9632e-13 0)
(580 5.13048e-13 0)
(580 2.10012e-13 0)
(580 -2.41898e-13 0)
(580 2.91942e-14 0)
(580 -5.86203e-14 0)
(580 -3.41549e-13 0)
(580 -3.0939e-13 0)
(580 -2.12565e-14 0)
(580 -2.6631e-14 0)
(580 1.40898e-14 0)
(580 5.29849e-14 0)
(580 2.34274e-13 0)
(580 5.5972e-13 0)
(580 8.85078e-13 0)
(580 6.91367e-13 0)
(580 8.59963e-13 0)
(580 8.18974e-13 0)
(580 8.10352e-13 0)
(580 6.07757e-13 0)
(580 3.14111e-13 0)
(580 -8.89293e-14 0)
(580 -6.14429e-13 0)
(580 -6.27177e-13 0)
(580 -6.30224e-13 0)
(580 -6.12232e-13 0)
(580 -4.67784e-13 0)
(580 -5.00184e-13 0)
(580 -6.02266e-13 0)
(580 -5.3594e-13 0)
(580 -2.38059e-13 0)
(580 5.45858e-13 0)
(580 9.2965e-13 0)
(580 7.17949e-13 0)
(580 6.97905e-13 0)
(580 9.38318e-13 0)
(580 1.59325e-12 0)
(580 1.48982e-12 0)
(580 1.20588e-12 0)
(580 1.07148e-12 0)
(580 7.94603e-13 0)
(580 7.00569e-13 0)
(580 5.21937e-13 0)
(580 1.57439e-13 0)
(580 1.76546e-13 0)
(580 4.15589e-13 0)
(580 4.61343e-13 0)
(580 9.64558e-13 0)
(580 1.70286e-12 0)
(580 1.80339e-12 0)
(580 1.47306e-12 0)
(580 1.09238e-12 0)
(580 1.33943e-12 0)
(580 1.78103e-12 0)
(580 1.89982e-12 0)
(580 1.54667e-12 0)
(580 9.71354e-13 0)
(580 2.12215e-13 0)
(580 1.08059e-13 0)
(580 4.87328e-15 0)
(580 -1.89039e-13 0)
(580 -3.46317e-13 0)
(580 -2.64951e-13 0)
(580 -4.00106e-14 0)
(580 9.59288e-14 0)
(580 -8.06615e-13 0)
(580 -8.63763e-13 0)
(580 -7.3504e-13 0)
(580 -4.35433e-13 0)
(580 -1.34095e-13 0)
(580 9.90848e-14 0)
(580 -1.08796e-12 0)
(580 -2.46168e-14 0)
(580 3.64772e-14 0)
(580 1.80107e-13 0)
(580 1.67786e-13 0)
(580 1.54428e-13 0)
(580 2.24074e-13 0)
(580 3.44631e-13 0)
(580 1.90047e-13 0)
(580 -2.24044e-14 0)
(580 -7.9228e-14 0)
(580 -2.21572e-13 0)
(580 -4.03881e-13 0)
(580 -3.26365e-13 0)
(580 -2.97522e-13 0)
(580 -1.9837e-13 0)
(580 6.93462e-14 0)
(580 1.93626e-13 0)
(580 5.37357e-13 0)
(580 7.23887e-13 0)
(580 7.08384e-13 0)
(580 9.83685e-13 0)
(580 1.40667e-12 0)
(580 1.51462e-12 0)
(580 1.33613e-12 0)
(580 9.16233e-13 0)
(580 8.08554e-13 0)
(580 7.8885e-13 0)
(580 7.09586e-13 0)
(580 6.56094e-13 0)
(580 4.77243e-13 0)
(580 3.3869e-13 0)
(580 7.52031e-13 0)
(580 6.78061e-13 0)
(580 1.89935e-13 0)
(580 1.24084e-13 0)
(580 7.59059e-14 0)
(580 1.63636e-13 0)
(580 2.53533e-13 0)
(580 5.42514e-13 0)
(580 6.27429e-13 0)
(580 6.55829e-13 0)
(580 7.64477e-13 0)
(580 7.18716e-13 0)
(580 1.03828e-12 0)
(580 1.31374e-12 0)
(580 1.3996e-12 0)
(580 1.29534e-12 0)
(580 1.05406e-12 0)
(580 6.8287e-13 0)
(580 4.42117e-13 0)
(580 1.50142e-13 0)
(580 -2.38526e-15 0)
(580 2.76216e-13 0)
(580 3.42244e-13 0)
(580 7.04607e-13 0)
(580 1.38379e-12 0)
(580 1.63718e-12 0)
(580 1.73046e-12 0)
(580 1.69828e-12 0)
(580 1.26548e-12 0)
(580 1.4269e-12 0)
(580 1.28874e-12 0)
(580 1.48412e-12 0)
(580 1.36383e-12 0)
(580 1.03443e-12 0)
(580 3.83624e-13 0)
(580 3.21966e-14 0)
(580 -1.49126e-13 0)
(580 -8.0919e-13 0)
(580 -9.93728e-13 0)
(580 -8.49332e-13 0)
(580 -2.29315e-13 0)
(580 -1.20443e-13 0)
(580 -1.50547e-13 0)
(580 -3.94934e-13 0)
(580 -5.62154e-13 0)
(580 -3.75921e-13 0)
(580 -1.58109e-13 0)
(580 7.77417e-14 0)
(580 -1.32144e-12 0)
(580 -5.22436e-14 0)
(580 1.64929e-14 0)
(580 7.26454e-15 0)
(580 3.44846e-13 0)
(580 3.7907e-13 0)
(580 1.24614e-13 0)
(580 -8.99663e-14 0)
(580 1.46553e-13 0)
(580 -9.59006e-14 0)
(580 -2.8126e-13 0)
(580 -1.40668e-13 0)
(580 -6.77173e-14 0)
(580 -9.87816e-14 0)
(580 3.97118e-13 0)
(580 6.5304e-13 0)
(580 6.39056e-13 0)
(580 3.60565e-13 0)
(580 6.99126e-13 0)
(580 1.32313e-12 0)
(580 1.2628e-12 0)
(580 1.21977e-12 0)
(580 1.2189e-12 0)
(580 1.17407e-12 0)
(580 1.19815e-12 0)
(580 9.70059e-13 0)
(580 6.69153e-13 0)
(580 7.43658e-13 0)
(580 8.139e-13 0)
(580 5.46891e-13 0)
(580 4.27995e-13 0)
(580 9.07887e-13 0)
(580 1.16835e-12 0)
(580 8.69855e-13 0)
(580 7.02035e-13 0)
(580 5.22672e-13 0)
(580 6.58746e-13 0)
(580 9.35791e-13 0)
(580 1.09645e-12 0)
(580 8.64987e-13 0)
(580 6.08843e-13 0)
(580 4.5687e-13 0)
(580 8.49815e-13 0)
(580 1.12745e-12 0)
(580 9.27537e-13 0)
(580 6.74861e-13 0)
(580 8.14229e-13 0)
(580 1.08525e-12 0)
(580 8.39897e-13 0)
(580 6.5575e-13 0)
(580 3.33181e-13 0)
(580 1.90195e-13 0)
(580 4.4239e-13 0)
(580 6.8955e-13 0)
(580 6.5715e-13 0)
(580 6.33152e-13 0)
(580 7.63486e-13 0)
(580 7.52489e-13 0)
(580 7.84971e-13 0)
(580 1.41333e-12 0)
(580 1.58076e-12 0)
(580 1.09441e-12 0)
(580 8.5746e-13 0)
(580 8.05599e-13 0)
(580 7.9247e-13 0)
(580 8.21557e-13 0)
(580 8.18705e-13 0)
(580 3.31558e-13 0)
(580 2.44038e-14 0)
(580 -2.01523e-13 0)
(580 -1.98355e-13 0)
(580 -1.41466e-13 0)
(580 -7.84894e-14 0)
(580 -2.04478e-13 0)
(580 -9.8418e-14 0)
(580 -1.68796e-13 0)
(580 -6.09027e-14 0)
(580 -3.30008e-13 0)
(580 -1.57018e-13 0)
(580 1.94095e-14 0)
(580 -1.8412e-12 0)
(580 1.69501e-14 0)
(580 5.09151e-14 0)
(580 -5.56334e-14 0)
(580 -3.12678e-14 0)
(580 3.76969e-14 0)
(580 -2.27239e-14 0)
(580 -4.02064e-13 0)
(580 -6.35107e-13 0)
(580 -5.04022e-13 0)
(580 -5.79845e-13 0)
(580 -7.17406e-13 0)
(580 -7.07304e-13 0)
(580 -3.8006e-13 0)
(580 -1.63349e-13 0)
(580 -9.28812e-14 0)
(580 6.02076e-14 0)
(580 3.45116e-13 0)
(580 5.20462e-13 0)
(580 4.82369e-13 0)
(580 1.39025e-13 0)
(580 1.73898e-13 0)
(580 3.72021e-13 0)
(580 7.48045e-13 0)
(580 1.27179e-12 0)
(580 9.34903e-13 0)
(580 5.63729e-13 0)
(580 5.64867e-13 0)
(580 4.7717e-13 0)
(580 3.32953e-13 0)
(580 5.44309e-13 0)
(580 9.50223e-13 0)
(580 8.42236e-13 0)
(580 9.5952e-13 0)
(580 8.07257e-13 0)
(580 9.53967e-13 0)
(580 9.45209e-13 0)
(580 1.04907e-12 0)
(580 1.23718e-12 0)
(580 1.14606e-12 0)
(580 1.0518e-12 0)
(580 1.10663e-12 0)
(580 1.30925e-12 0)
(580 1.43436e-12 0)
(580 1.28686e-12 0)
(580 6.77996e-13 0)
(580 4.35806e-13 0)
(580 5.3019e-13 0)
(580 3.30195e-13 0)
(580 4.89538e-13 0)
(580 3.63572e-13 0)
(580 2.49527e-13 0)
(580 6.48645e-13 0)
(580 6.50453e-13 0)
(580 6.86134e-13 0)
(580 6.52477e-13 0)
(580 6.88041e-13 0)
(580 8.69347e-13 0)
(580 7.72769e-13 0)
(580 6.85827e-13 0)
(580 9.68517e-13 0)
(580 9.69702e-13 0)
(580 9.98015e-13 0)
(580 9.39698e-13 0)
(580 1.05378e-12 0)
(580 1.10387e-12 0)
(580 8.90559e-13 0)
(580 4.56096e-13 0)
(580 3.58193e-13 0)
(580 3.93849e-13 0)
(580 3.75961e-13 0)
(580 1.85053e-13 0)
(580 3.53314e-13 0)
(580 4.77931e-13 0)
(580 4.47181e-13 0)
(580 3.41736e-13 0)
(580 3.01804e-13 0)
(580 3.74608e-13 0)
(580 4.81691e-13 0)
(580 1.13974e-13 0)
(580 -8.68308e-13 0)
(580 6.8699e-14 0)
(580 -1.58919e-13 0)
(580 -2.75954e-13 0)
(580 -1.96229e-13 0)
(580 -2.67907e-13 0)
(580 -5.055e-13 0)
(580 -7.80639e-13 0)
(580 -6.72044e-13 0)
(580 -6.03025e-13 0)
(580 -4.48269e-13 0)
(580 -5.05335e-13 0)
(580 -3.42588e-13 0)
(580 -4.75512e-13 0)
(580 -5.12488e-13 0)
(580 -3.59068e-13 0)
(580 -3.08843e-14 0)
(580 4.50785e-13 0)
(580 4.61423e-13 0)
(580 4.46023e-13 0)
(580 3.50191e-13 0)
(580 2.82449e-13 0)
(580 3.09089e-13 0)
(580 3.79617e-13 0)
(580 3.57658e-13 0)
(580 3.76207e-13 0)
(580 5.63053e-13 0)
(580 6.21637e-13 0)
(580 4.92026e-13 0)
(580 3.92498e-13 0)
(580 6.62398e-13 0)
(580 8.25089e-13 0)
(580 1.05964e-12 0)
(580 1.27951e-12 0)
(580 1.1058e-12 0)
(580 1.2856e-12 0)
(580 1.25645e-12 0)
(580 1.29424e-12 0)
(580 1.41748e-12 0)
(580 1.47431e-12 0)
(580 1.49789e-12 0)
(580 1.46301e-12 0)
(580 1.26345e-12 0)
(580 1.07627e-12 0)
(580 1.17228e-12 0)
(580 9.74619e-13 0)
(580 8.38414e-13 0)
(580 3.85813e-13 0)
(580 1.49298e-13 0)
(580 1.56686e-13 0)
(580 1.4439e-13 0)
(580 2.44274e-13 0)
(580 4.47525e-13 0)
(580 3.99465e-13 0)
(580 4.23646e-13 0)
(580 5.19739e-13 0)
(580 5.59795e-13 0)
(580 6.94835e-13 0)
(580 6.52635e-13 0)
(580 3.41043e-13 0)
(580 3.17566e-13 0)
(580 5.4044e-13 0)
(580 6.37609e-13 0)
(580 7.93707e-13 0)
(580 8.78401e-13 0)
(580 7.75538e-13 0)
(580 4.39877e-13 0)
(580 2.35047e-13 0)
(580 4.27853e-13 0)
(580 7.71022e-13 0)
(580 7.75575e-13 0)
(580 4.08581e-13 0)
(580 -3.30311e-14 0)
(580 2.64787e-13 0)
(580 8.27813e-13 0)
(580 1.0784e-12 0)
(580 1.32686e-12 0)
(580 1.23285e-12 0)
(580 8.65082e-13 0)
(580 5.84858e-13 0)
(580 3.83496e-15 0)
(580 5.72334e-14 0)
(580 -2.86535e-14 0)
(580 -1.17108e-14 0)
(580 -5.56438e-14 0)
(580 -3.03769e-13 0)
(580 -3.78742e-13 0)
(580 -3.09353e-13 0)
(580 -2.69773e-13 0)
(580 -1.36544e-13 0)
(580 -6.06229e-14 0)
(580 9.75954e-14 0)
(580 6.95024e-14 0)
(580 -2.4005e-13 0)
(580 5.90836e-15 0)
(580 2.89188e-15 0)
(580 2.40695e-13 0)
(580 3.84471e-13 0)
(580 3.49846e-13 0)
(580 3.51885e-13 0)
(580 6.8384e-13 0)
(580 8.39923e-13 0)
(580 7.80013e-13 0)
(580 4.49718e-13 0)
(580 1.43841e-13 0)
(580 3.22196e-13 0)
(580 1.01805e-12 0)
(580 1.01353e-12 0)
(580 6.9156e-13 0)
(580 8.35436e-13 0)
(580 7.99318e-13 0)
(580 8.50463e-13 0)
(580 9.25832e-13 0)
(580 9.44549e-13 0)
(580 9.61239e-13 0)
(580 9.34628e-13 0)
(580 1.22837e-12 0)
(580 1.38837e-12 0)
(580 1.38953e-12 0)
(580 1.46558e-12 0)
(580 1.37545e-12 0)
(580 1.40557e-12 0)
(580 1.10253e-12 0)
(580 8.88996e-13 0)
(580 8.32378e-13 0)
(580 1.00035e-12 0)
(580 9.04793e-13 0)
(580 6.65815e-13 0)
(580 8.26652e-13 0)
(580 5.08677e-13 0)
(580 1.65576e-13 0)
(580 5.21357e-13 0)
(580 1.18023e-13 0)
(580 1.3062e-13 0)
(580 2.25058e-13 0)
(580 7.4645e-14 0)
(580 1.48668e-13 0)
(580 4.14789e-14 0)
(580 1.72413e-13 0)
(580 2.28363e-13 0)
(580 3.45298e-13 0)
(580 5.19068e-13 0)
(580 7.0288e-13 0)
(580 7.5377e-13 0)
(580 4.68035e-13 0)
(580 1.65181e-13 0)
(580 7.07341e-14 0)
(580 1.60445e-13 0)
(580 6.29923e-13 0)
(580 1.19103e-12 0)
(580 1.38538e-12 0)
(580 1.15077e-12 0)
(580 3.14482e-13 0)
(580 2.82227e-13 0)
(580 3.40432e-13 0)
(580 5.69253e-13 0)
(580 7.08517e-13 0)
(580 7.0895e-13 0)
(580 4.13494e-13 0)
(580 6.58989e-13 0)
(580 3.45936e-14 0)
(580 -1.60118e-13 0)
(580 -5.26383e-14 0)
(580 -6.20482e-14 0)
(580 -2.02052e-13 0)
(580 -2.28674e-13 0)
(580 -1.5109e-13 0)
(580 3.09047e-13 0)
(580 2.87701e-13 0)
(580 2.37832e-13 0)
(580 1.63769e-13 0)
(580 3.16574e-13 0)
(580 3.29937e-13 0)
(580 5.05632e-13 0)
(580 4.23295e-13 0)
(580 1.18032e-13 0)
(580 4.60256e-14 0)
(580 -6.12674e-14 0)
(580 -1.11228e-13 0)
(580 -6.37033e-14 0)
(580 1.70945e-13 0)
(580 4.192e-13 0)
(580 5.09175e-13 0)
(580 6.20124e-13 0)
(580 5.0407e-13 0)
(580 5.46104e-13 0)
(580 5.52187e-13 0)
(580 4.09902e-13 0)
(580 2.9853e-13 0)
(580 7.49199e-13 0)
(580 4.88877e-13 0)
(580 3.28453e-13 0)
(580 3.17382e-13 0)
(580 5.24558e-13 0)
(580 8.03455e-13 0)
(580 8.58482e-13 0)
(580 9.7425e-13 0)
(580 1.0216e-12 0)
(580 1.14256e-12 0)
(580 1.34141e-12 0)
(580 1.30635e-12 0)
(580 1.41366e-12 0)
(580 1.3173e-12 0)
(580 1.24683e-12 0)
(580 9.8756e-13 0)
(580 9.65954e-13 0)
(580 1.26708e-12 0)
(580 9.38261e-13 0)
(580 9.82009e-13 0)
(580 7.88076e-13 0)
(580 7.87004e-13 0)
(580 1.00838e-12 0)
(580 7.47993e-13 0)
(580 6.6372e-13 0)
(580 6.43607e-13 0)
(580 4.72771e-13 0)
(580 3.50873e-13 0)
(580 -1.14657e-13 0)
(580 -3.99254e-14 0)
(580 3.83569e-13 0)
(580 9.0711e-13 0)
(580 9.01096e-13 0)
(580 1.25319e-12 0)
(580 1.15751e-12 0)
(580 7.65278e-13 0)
(580 1.82185e-13 0)
(580 1.84704e-13 0)
(580 5.20095e-13 0)
(580 8.04011e-13 0)
(580 9.39477e-13 0)
(580 1.15359e-12 0)
(580 1.05895e-12 0)
(580 9.18103e-13 0)
(580 1.00452e-12 0)
(580 8.01963e-13 0)
(580 8.5905e-13 0)
(580 6.91965e-13 0)
(580 4.41256e-13 0)
(580 1.9021e-13 0)
(580 2.00241e-13 0)
(580 -8.14943e-14 0)
(580 -3.4766e-14 0)
(580 -8.35217e-14 0)
(580 -9.85828e-17 0)
(580 -2.36051e-15 0)
(580 1.41689e-13 0)
(580 2.35787e-13 0)
(580 7.07431e-13 0)
(580 8.98412e-13 0)
(580 6.8602e-13 0)
(580 4.83878e-13 0)
(580 5.02847e-13 0)
(580 6.98611e-13 0)
(580 7.02948e-13 0)
(580 5.13269e-13 0)
(580 2.71183e-13 0)
(580 9.20578e-14 0)
(580 -9.16906e-15 0)
(580 -1.28056e-13 0)
(580 -1.31152e-13 0)
(580 -8.28494e-14 0)
(580 5.2586e-14 0)
(580 1.51393e-13 0)
(580 1.52702e-13 0)
(580 1.47952e-13 0)
(580 5.58586e-14 0)
(580 -1.02584e-13 0)
(580 1.65641e-13 0)
(580 4.99271e-13 0)
(580 3.75874e-13 0)
(580 2.90011e-13 0)
(580 5.26555e-13 0)
(580 5.64566e-13 0)
(580 6.09048e-13 0)
(580 9.20104e-13 0)
(580 1.20852e-12 0)
(580 1.06183e-12 0)
(580 7.07419e-13 0)
(580 7.45017e-13 0)
(580 9.18171e-13 0)
(580 1.06616e-12 0)
(580 1.34971e-12 0)
(580 1.55994e-12 0)
(580 1.58324e-12 0)
(580 1.52205e-12 0)
(580 1.38103e-12 0)
(580 1.25614e-12 0)
(580 1.25402e-12 0)
(580 1.15207e-12 0)
(580 1.03557e-12 0)
(580 1.22798e-12 0)
(580 1.20263e-12 0)
(580 1.09708e-12 0)
(580 8.82692e-13 0)
(580 7.2774e-13 0)
(580 5.52572e-13 0)
(580 2.27391e-13 0)
(580 1.09447e-13 0)
(580 4.32424e-13 0)
(580 8.52396e-13 0)
(580 7.92285e-13 0)
(580 7.83621e-13 0)
(580 9.18285e-13 0)
(580 9.30901e-13 0)
(580 9.03517e-13 0)
(580 1.11763e-12 0)
(580 1.2517e-12 0)
(580 1.21352e-12 0)
(580 1.05789e-12 0)
(580 9.86561e-13 0)
(580 9.75667e-13 0)
(580 1.09087e-12 0)
(580 1.35916e-12 0)
(580 1.62038e-12 0)
(580 1.11024e-12 0)
(580 9.06956e-13 0)
(580 5.33468e-13 0)
(580 7.45027e-14 0)
(580 -2.95705e-13 0)
(580 -5.70433e-13 0)
(580 -5.15664e-13 0)
(580 6.04267e-15 0)
(580 7.06782e-14 0)
(580 1.50602e-13 0)
(580 1.95949e-13 0)
(580 2.60164e-13 0)
(580 5.72033e-13 0)
(580 5.97704e-13 0)
(580 7.30543e-13 0)
(580 7.57334e-13 0)
(580 6.34959e-13 0)
(580 4.98145e-13 0)
(580 6.10235e-13 0)
(580 4.99182e-13 0)
(580 3.16525e-13 0)
(580 3.81881e-13 0)
(580 3.46594e-13 0)
(580 2.75533e-13 0)
(580 2.53506e-13 0)
(580 1.4221e-13 0)
(580 5.27489e-15 0)
(580 -9.20933e-16 0)
(580 -2.01609e-13 0)
(580 -3.70946e-13 0)
(580 -6.40395e-13 0)
(580 -2.92184e-13 0)
(580 -1.70075e-13 0)
(580 8.8442e-14 0)
(580 5.58278e-13 0)
(580 3.86639e-13 0)
(580 5.12224e-13 0)
(580 4.64815e-13 0)
(580 5.10003e-13 0)
(580 4.74198e-13 0)
(580 6.41915e-13 0)
(580 9.28202e-13 0)
(580 1.03016e-12 0)
(580 8.42223e-13 0)
(580 8.64357e-13 0)
(580 8.85824e-13 0)
(580 1.06928e-12 0)
(580 1.30693e-12 0)
(580 1.51891e-12 0)
(580 1.58523e-12 0)
(580 1.52962e-12 0)
(580 1.98372e-12 0)
(580 1.67059e-12 0)
(580 1.7751e-12 0)
(580 1.689e-12 0)
(580 1.8099e-12 0)
(580 2.02224e-12 0)
(580 1.85892e-12 0)
(580 1.455e-12 0)
(580 7.20364e-13 0)
(580 5.30674e-13 0)
(580 5.4058e-13 0)
(580 5.58604e-13 0)
(580 7.84279e-13 0)
(580 8.71733e-13 0)
(580 1.07608e-12 0)
(580 1.0147e-12 0)
(580 8.05482e-13 0)
(580 5.14818e-13 0)
(580 6.11014e-13 0)
(580 1.09801e-12 0)
(580 1.92627e-12 0)
(580 1.87465e-12 0)
(580 1.42058e-12 0)
(580 1.1646e-12 0)
(580 1.23571e-12 0)
(580 9.55257e-13 0)
(580 1.10022e-12 0)
(580 1.19655e-12 0)
(580 1.15232e-12 0)
(580 9.52235e-13 0)
(580 4.00467e-13 0)
(580 9.13947e-14 0)
(580 2.72393e-13 0)
(580 5.81134e-15 0)
(580 -2.67542e-13 0)
(580 -3.87838e-13 0)
(580 -1.68429e-13 0)
(580 1.36569e-13 0)
(580 1.1332e-13 0)
(580 2.49122e-13 0)
(580 2.16644e-13 0)
(580 2.41264e-13 0)
(580 1.9306e-13 0)
(580 2.13828e-13 0)
(580 1.8871e-13 0)
(580 2.76245e-13 0)
(580 2.61607e-13 0)
(580 -7.05838e-14 0)
(580 -1.1934e-13 0)
(580 -2.38315e-13 0)
(580 -2.18304e-13 0)
(580 -3.12973e-13 0)
(580 -3.58083e-13 0)
(580 -2.37657e-13 0)
(580 -2.31434e-13 0)
(580 -2.56379e-13 0)
(580 -3.56864e-13 0)
(580 -4.15312e-13 0)
(580 -3.29499e-13 0)
(580 1.01224e-13 0)
(580 3.15329e-13 0)
(580 3.36856e-13 0)
(580 2.63316e-13 0)
(580 4.78631e-13 0)
(580 5.42488e-13 0)
(580 5.73302e-13 0)
(580 4.48969e-13 0)
(580 2.81617e-13 0)
(580 3.33665e-13 0)
(580 5.42247e-13 0)
(580 5.87215e-13 0)
(580 7.26996e-13 0)
(580 1.1389e-12 0)
(580 1.12019e-12 0)
(580 1.03456e-12 0)
(580 9.97692e-13 0)
(580 1.00031e-12 0)
(580 1.01874e-12 0)
(580 1.19571e-12 0)
(580 1.34764e-12 0)
(580 1.80947e-12 0)
(580 2.02403e-12 0)
(580 2.17214e-12 0)
(580 2.12921e-12 0)
(580 2.20603e-12 0)
(580 2.06904e-12 0)
(580 1.88714e-12 0)
(580 1.82515e-12 0)
(580 1.52705e-12 0)
(580 9.40763e-13 0)
(580 7.91636e-13 0)
(580 7.63379e-13 0)
(580 1.106e-12 0)
(580 1.00487e-12 0)
(580 1.14919e-12 0)
(580 1.44327e-12 0)
(580 1.31356e-12 0)
(580 1.25315e-12 0)
(580 1.1139e-12 0)
(580 1.46441e-12 0)
(580 1.52369e-12 0)
(580 1.28517e-12 0)
(580 1.22912e-12 0)
(580 1.20126e-12 0)
(580 1.25577e-12 0)
(580 1.13318e-12 0)
(580 1.00192e-12 0)
(580 8.49914e-13 0)
(580 6.44733e-13 0)
(580 6.24215e-13 0)
(580 5.71968e-13 0)
(580 3.99202e-13 0)
(580 6.82256e-13 0)
(580 9.75045e-13 0)
(580 1.05923e-12 0)
(580 9.00749e-13 0)
(580 -5.45354e-15 0)
(580 -5.46266e-14 0)
(580 -9.16095e-14 0)
(580 -2.63309e-14 0)
(580 3.32463e-13 0)
(580 8.32101e-14 0)
(580 2.39787e-14 0)
(580 -3.60218e-14 0)
(580 -1.39212e-13 0)
(580 1.67884e-13 0)
(580 2.26026e-13 0)
(580 8.38055e-14 0)
(580 -7.79726e-14 0)
(580 -9.70406e-15 0)
(580 -7.55694e-14 0)
(580 -3.52392e-13 0)
(580 -4.86608e-13 0)
(580 -5.08011e-13 0)
(580 -4.08669e-13 0)
(580 -2.67777e-13 0)
(580 -2.35783e-13 0)
(580 -1.09975e-13 0)
(580 2.70449e-13 0)
(580 6.3068e-13 0)
(580 4.83732e-13 0)
(580 5.3097e-13 0)
(580 6.76992e-13 0)
(580 5.36782e-13 0)
(580 6.18816e-13 0)
(580 8.84348e-13 0)
(580 1.03302e-12 0)
(580 8.63957e-13 0)
(580 8.54408e-13 0)
(580 8.90253e-13 0)
(580 7.2015e-13 0)
(580 6.47043e-13 0)
(580 1.14924e-12 0)
(580 9.14166e-13 0)
(580 8.42866e-13 0)
(580 8.3482e-13 0)
(580 9.59139e-13 0)
(580 1.11082e-12 0)
(580 1.37249e-12 0)
(580 1.49898e-12 0)
(580 1.27657e-12 0)
(580 1.33511e-12 0)
(580 1.25567e-12 0)
(580 1.24433e-12 0)
(580 1.32314e-12 0)
(580 1.32462e-12 0)
(580 1.31244e-12 0)
(580 1.51281e-12 0)
(580 1.76908e-12 0)
(580 1.64801e-12 0)
(580 1.32023e-12 0)
(580 8.86025e-13 0)
(580 6.81896e-13 0)
(580 6.46616e-13 0)
(580 7.75874e-13 0)
(580 1.09062e-12 0)
(580 1.2577e-12 0)
(580 1.60531e-12 0)
(580 1.59956e-12 0)
(580 1.36052e-12 0)
(580 9.35951e-13 0)
(580 1.2901e-12 0)
(580 1.3806e-12 0)
(580 1.31894e-12 0)
(580 1.0239e-12 0)
(580 1.01745e-12 0)
(580 1.18415e-12 0)
(580 1.26498e-12 0)
(580 1.13059e-12 0)
(580 7.9727e-13 0)
(580 9.03313e-13 0)
(580 1.095e-12 0)
(580 9.9834e-13 0)
(580 9.26882e-13 0)
(580 8.64442e-13 0)
(580 9.7626e-13 0)
(580 1.15288e-13 0)
(580 -1.01652e-14 0)
(580 7.11592e-14 0)
(580 -3.12328e-14 0)
(580 -1.98799e-14 0)
(580 -2.51022e-14 0)
(580 -1.34557e-13 0)
(580 -1.41484e-13 0)
(580 9.6856e-14 0)
(580 5.38898e-13 0)
(580 6.38368e-13 0)
(580 6.76371e-13 0)
(580 6.45383e-13 0)
(580 5.95311e-13 0)
(580 4.59761e-13 0)
(580 2.40398e-13 0)
(580 1.16974e-13 0)
(580 9.77201e-14 0)
(580 1.35833e-13 0)
(580 2.07715e-13 0)
(580 3.3221e-13 0)
(580 5.74755e-13 0)
(580 6.00468e-13 0)
(580 3.27129e-13 0)
(580 2.04398e-13 0)
(580 4.26993e-13 0)
(580 4.5898e-13 0)
(580 4.83091e-13 0)
(580 8.03023e-13 0)
(580 9.4882e-13 0)
(580 1.18979e-12 0)
(580 1.2858e-12 0)
(580 1.17632e-12 0)
(580 6.07365e-13 0)
(580 3.73254e-13 0)
(580 2.85556e-13 0)
(580 5.23632e-13 0)
(580 5.98443e-13 0)
(580 6.84218e-13 0)
(580 7.49349e-13 0)
(580 8.83224e-13 0)
(580 1.01891e-12 0)
(580 1.30416e-12 0)
(580 1.50483e-12 0)
(580 1.34767e-12 0)
(580 1.26287e-12 0)
(580 1.09546e-12 0)
(580 1.07496e-12 0)
(580 9.06588e-13 0)
(580 9.90758e-13 0)
(580 1.09656e-12 0)
(580 8.60037e-13 0)
(580 7.03419e-13 0)
(580 6.90197e-13 0)
(580 4.76758e-13 0)
(580 1.37538e-13 0)
(580 1.70861e-13 0)
(580 4.33652e-13 0)
(580 4.88912e-13 0)
(580 5.83939e-13 0)
(580 9.46424e-13 0)
(580 1.05842e-12 0)
(580 1.23436e-12 0)
(580 9.39839e-13 0)
(580 8.89815e-13 0)
(580 1.36615e-12 0)
(580 1.30877e-12 0)
(580 1.40867e-12 0)
(580 1.40639e-12 0)
(580 1.33752e-12 0)
(580 1.26642e-12 0)
(580 1.25238e-12 0)
(580 1.16983e-12 0)
(580 9.95414e-13 0)
(580 1.11226e-12 0)
(580 1.38799e-12 0)
(580 1.4056e-12 0)
(580 1.47313e-12 0)
(580 1.21623e-12 0)
(580 1.16762e-12 0)
(580 4.73693e-14 0)
(580 1.98412e-13 0)
(580 4.12967e-13 0)
(580 4.82196e-13 0)
(580 2.64406e-13 0)
(580 2.85272e-13 0)
(580 1.07963e-13 0)
(580 6.2541e-14 0)
(580 5.29319e-13 0)
(580 6.36005e-13 0)
(580 8.26809e-13 0)
(580 8.94509e-13 0)
(580 8.00564e-13 0)
(580 5.14435e-13 0)
(580 6.20219e-13 0)
(580 7.63407e-13 0)
(580 9.92317e-13 0)
(580 9.46218e-13 0)
(580 1.02496e-12 0)
(580 9.98057e-13 0)
(580 1.09236e-12 0)
(580 1.15119e-12 0)
(580 9.80733e-13 0)
(580 8.64919e-13 0)
(580 8.36243e-13 0)
(580 7.53254e-13 0)
(580 3.17654e-13 0)
(580 4.70296e-13 0)
(580 5.34203e-13 0)
(580 5.6873e-13 0)
(580 9.60302e-13 0)
(580 1.14793e-12 0)
(580 1.15218e-12 0)
(580 6.59935e-13 0)
(580 3.20269e-13 0)
(580 7.29242e-14 0)
(580 -2.32514e-14 0)
(580 5.7484e-13 0)
(580 9.38398e-13 0)
(580 9.85786e-13 0)
(580 1.02798e-12 0)
(580 9.44915e-13 0)
(580 8.85614e-13 0)
(580 1.05253e-12 0)
(580 1.07941e-12 0)
(580 1.23214e-12 0)
(580 1.36641e-12 0)
(580 1.44179e-12 0)
(580 1.23682e-12 0)
(580 1.06386e-12 0)
(580 8.22947e-13 0)
(580 3.85378e-13 0)
(580 2.78406e-13 0)
(580 2.78789e-13 0)
(580 3.05852e-13 0)
(580 3.59669e-13 0)
(580 3.24369e-13 0)
(580 5.02007e-13 0)
(580 5.5284e-13 0)
(580 6.99113e-13 0)
(580 9.49719e-13 0)
(580 9.37424e-13 0)
(580 9.17765e-13 0)
(580 9.65391e-13 0)
(580 1.10484e-12 0)
(580 1.07882e-12 0)
(580 1.14451e-12 0)
(580 1.29801e-12 0)
(580 1.3652e-12 0)
(580 1.43333e-12 0)
(580 1.27438e-12 0)
(580 1.06364e-12 0)
(580 6.56642e-13 0)
(580 7.58197e-13 0)
(580 8.72559e-13 0)
(580 9.21104e-13 0)
(580 1.06638e-12 0)
(580 1.25933e-12 0)
(580 1.29237e-12 0)
(580 1.25056e-12 0)
(580 -2.84103e-14 0)
(580 -5.65506e-15 0)
(580 2.68409e-14 0)
(580 1.47065e-13 0)
(580 2.48569e-13 0)
(580 3.02323e-13 0)
(580 3.05436e-13 0)
(580 2.30675e-13 0)
(580 8.71194e-14 0)
(580 -1.93429e-14 0)
(580 -4.12106e-14 0)
(580 -4.61539e-15 0)
(580 1.85207e-13 0)
(580 4.85863e-13 0)
(580 5.1691e-13 0)
(580 8.22887e-13 0)
(580 9.71127e-13 0)
(580 1.25074e-12 0)
(580 1.12533e-12 0)
(580 1.08319e-12 0)
(580 1.10313e-12 0)
(580 1.05814e-12 0)
(580 8.74148e-13 0)
(580 7.5701e-13 0)
(580 8.75877e-13 0)
(580 7.9873e-13 0)
(580 7.38708e-13 0)
(580 8.11797e-13 0)
(580 5.39072e-13 0)
(580 4.75201e-13 0)
(580 5.57576e-13 0)
(580 5.47575e-13 0)
(580 8.18509e-13 0)
(580 8.148e-13 0)
(580 6.46441e-13 0)
(580 6.8762e-13 0)
(580 5.45462e-13 0)
(580 8.1314e-13 0)
(580 9.8093e-13 0)
(580 1.03451e-12 0)
(580 9.99629e-13 0)
(580 9.48668e-13 0)
(580 9.98381e-13 0)
(580 9.99519e-13 0)
(580 9.31966e-13 0)
(580 1.04882e-12 0)
(580 1.17356e-12 0)
(580 1.23314e-12 0)
(580 1.44423e-12 0)
(580 1.32662e-12 0)
(580 1.01984e-12 0)
(580 9.89114e-13 0)
(580 7.97354e-13 0)
(580 5.20602e-13 0)
(580 7.07179e-13 0)
(580 7.98066e-13 0)
(580 5.37412e-13 0)
(580 5.75673e-13 0)
(580 7.56216e-13 0)
(580 8.02134e-13 0)
(580 8.85781e-13 0)
(580 5.62354e-13 0)
(580 3.79055e-13 0)
(580 3.92369e-13 0)
(580 5.38438e-13 0)
(580 6.61892e-13 0)
(580 7.2419e-13 0)
(580 9.33026e-13 0)
(580 1.03186e-12 0)
(580 1.39432e-12 0)
(580 1.47584e-12 0)
(580 1.31647e-12 0)
(580 8.90682e-13 0)
(580 7.36156e-13 0)
(580 6.67458e-13 0)
(580 5.77628e-13 0)
(580 6.65091e-13 0)
(580 7.83834e-13 0)
(580 1.14514e-12 0)
(580 1.36621e-12 0)
(580 1.2062e-13 0)
(580 -2.7375e-14 0)
(580 -1.29715e-13 0)
(580 -2.82106e-13 0)
(580 -4.18744e-13 0)
(580 -2.67543e-13 0)
(580 -1.91745e-13 0)
(580 -2.25101e-13 0)
(580 -3.32244e-13 0)
(580 -5.31002e-13 0)
(580 -4.43809e-13 0)
(580 -5.8018e-13 0)
(580 -2.51794e-13 0)
(580 1.91314e-13 0)
(580 1.91837e-13 0)
(580 6.94095e-14 0)
(580 2.78639e-14 0)
(580 1.89072e-13 0)
(580 3.83632e-13 0)
(580 4.98719e-13 0)
(580 5.35624e-13 0)
(580 5.64657e-13 0)
(580 4.61237e-13 0)
(580 4.24013e-13 0)
(580 6.87384e-13 0)
(580 8.5454e-13 0)
(580 9.11139e-13 0)
(580 1.09801e-12 0)
(580 9.12203e-13 0)
(580 6.03103e-13 0)
(580 3.43217e-13 0)
(580 3.79912e-13 0)
(580 4.71964e-13 0)
(580 5.09057e-13 0)
(580 5.03711e-13 0)
(580 5.59895e-13 0)
(580 5.76868e-13 0)
(580 5.02759e-13 0)
(580 7.37831e-13 0)
(580 8.26691e-13 0)
(580 9.16457e-13 0)
(580 1.08267e-12 0)
(580 1.05089e-12 0)
(580 9.31127e-13 0)
(580 9.66802e-13 0)
(580 1.11621e-12 0)
(580 1.02106e-12 0)
(580 9.29961e-13 0)
(580 9.95539e-13 0)
(580 8.58787e-13 0)
(580 7.17304e-13 0)
(580 7.1375e-13 0)
(580 8.76052e-13 0)
(580 7.91252e-13 0)
(580 9.5792e-13 0)
(580 9.3371e-13 0)
(580 7.1891e-13 0)
(580 8.35812e-13 0)
(580 1.02103e-12 0)
(580 9.0237e-13 0)
(580 8.22317e-13 0)
(580 6.29363e-13 0)
(580 4.31332e-13 0)
(580 4.67696e-13 0)
(580 5.26465e-13 0)
(580 3.68662e-13 0)
(580 4.06713e-13 0)
(580 5.17676e-13 0)
(580 6.22923e-13 0)
(580 8.49316e-13 0)
(580 9.1272e-13 0)
(580 9.43567e-13 0)
(580 9.76179e-13 0)
(580 6.95868e-13 0)
(580 1.12245e-12 0)
(580 1.15384e-12 0)
(580 9.84736e-13 0)
(580 9.0715e-13 0)
(580 1.05584e-12 0)
(580 1.23895e-12 0)
(580 -3.25459e-14 0)
(580 -2.29744e-13 0)
(580 -2.08946e-13 0)
(580 -2.99078e-13 0)
(580 -5.78561e-13 0)
(580 -6.00478e-13 0)
(580 -4.80131e-13 0)