/*--------------------------------*- C++ -*----------------------------------*\
| =========                 |                                                 |
| \\      /  F ield         | OpenFOAM: The Open Source CFD Toolbox           |
|  \\    /   O peration     | Version:  2306                                  |
|   \\  /    A nd           | Website:  www.openfoam.com                      |
|    \\/     M anipulation  |                                                 |
\*---------------------------------------------------------------------------*/
FoamFile
{
    version     2.0;
    format      ascii;
    arch        "LSB;label=32;scalar=64";
    class       volVectorField;
    location    "0.0001";
    object      U;
}
// * * * * * * * * * * * * * * * * * * * * * * * * * * * * * * * * * * * * * //

dimensions      [0 1 -1 0 0 0 0];

internalField   nonuniform List<vector> 
8941
(
(580 1.99819e-14 0)
(580 -2.11403e-14 0)
(580 -1.92697e-14 0)
(580 -1.75141e-14 0)
(580 -1.02988e-13 0)
(580 -1.91478e-13 0)
(580 -2.07558e-14 0)
(580 3.45251e-13 0)
(580 5.95834e-13 0)
(580 5.52741e-13 0)
(580 3.49132e-13 0)
(580 2.75856e-13 0)
(580 2.38882e-13 0)
(580 5.37155e-13 0)
(580 4.60942e-13 0)
(580 5.92887e-13 0)
(580 5.05842e-13 0)
(580 1.2721e-13 0)
(580 -2.15588e-14 0)
(580 2.53169e-13 0)
(580 1.63005e-13 0)
(580 -4.50002e-14 0)
(580 -6.77987e-13 0)
(580 -5.08171e-13 0)
(580 -4.18662e-13 0)
(580 -5.76287e-13 0)
(580 -6.54613e-13 0)
(580 -8.57167e-13 0)
(580 -6.20349e-13 0)
(580 -4.41462e-13 0)
(580 -1.36982e-13 0)
(580 3.24703e-14 0)
(580 -5.72789e-14 0)
(580 1.69871e-13 0)
(580 1.13002e-13 0)
(580 -6.48435e-14 0)
(580 -2.94133e-13 0)
(580 -1.80293e-13 0)
(580 -2.38434e-13 0)
(580 5.12665e-14 0)
(580 4.78067e-13 0)
(580 3.6133e-13 0)
(580 8.28213e-14 0)
(580 5.02802e-14 0)
(580 1.61266e-13 0)
(580 1.5367e-13 0)
(580 3.4749e-13 0)
(580 4.72374e-13 0)
(580 4.26861e-13 0)
(580 1.91771e-13 0)
(580 -7.2962e-14 0)
(580 -2.3574e-13 0)
(580 -4.40398e-13 0)
(580 -3.50577e-13 0)
(580 -1.76788e-13 0)
(580 -1.69588e-13 0)
(580 3.35665e-13 0)
(580 1.73601e-13 0)
(580 2.37133e-13 0)
(580 1.56775e-13 0)
(580 3.69581e-15 0)
(580 2.56628e-13 0)
(580 1.25204e-13 0)
(580 1.98907e-13 0)
(580 1.82289e-13 0)
(580 3.0333e-13 0)
(580 5.83519e-13 0)
(580 -3.06837e-14 0)
(580 -2.18968e-13 0)
(580 -4.52969e-13 0)
(580 -2.16465e-13 0)
(580 -1.98915e-13 0)
(580 -1.97111e-13 0)
(580 -3.63816e-13 0)
(580 -4.10453e-13 0)
(580 -2.10597e-13 0)
(580 3.11569e-14 0)
(580 1.39566e-13 0)
(580 1.83761e-13 0)
(580 1.64595e-13 0)
(580 -2.80605e-14 0)
(580 -1.81694e-13 0)
(580 -2.72317e-13 0)
(580 -6.00466e-14 0)
(580 4.28836e-14 0)
(580 -1.11718e-13 0)
(580 2.86723e-13 0)
(580 4.93804e-13 0)
(580 8.3525e-13 0)
(580 8.64341e-13 0)
(580 4.75517e-13 0)
(580 3.64778e-13 0)
(580 2.01357e-13 0)
(580 3.8468e-13 0)
(580 4.55777e-13 0)
(580 4.81092e-13 0)
(580 3.30054e-13 0)
(580 2.4358e-13 0)
(580 2.70682e-13 0)
(580 2.637e-13 0)
(580 6.9988e-14 0)
(580 -2.40454e-13 0)
(580 -9.31461e-13 0)
(580 -5.27898e-13 0)
(580 -7.67022e-15 0)
(580 -3.09906e-13 0)
(580 -1.52746e-13 0)
(580 -5.59308e-13 0)
(580 -3.203e-13 0)
(580 -5.6965e-14 0)
(580 1.06868e-13 0)
(580 4.12911e-13 0)
(580 2.5737e-13 0)
(580 3.72621e-13 0)
(580 1.37064e-13 0)
(580 -3.50016e-13 0)
(580 -5.14441e-13 0)
(580 1.20463e-13 0)
(580 1.83481e-13 0)
(580 3.84579e-13 0)
(580 9.7505e-13 0)
(580 1.03345e-12 0)
(580 7.55832e-13 0)
(580 4.70134e-13 0)
(580 4.14192e-13 0)
(580 3.26652e-13 0)
(580 4.94507e-13 0)
(580 3.73533e-13 0)
(580 1.48242e-13 0)
(580 -4.2401e-13 0)
(580 -6.94251e-13 0)
(580 -8.16277e-13 0)
(580 -9.72197e-13 0)
(580 -6.04548e-13 0)
(580 2.5038e-14 0)
(580 2.78163e-13 0)
(580 1.21563e-12 0)
(580 1.01166e-12 0)
(580 6.01992e-13 0)
(580 5.3352e-14 0)
(580 -4.34201e-14 0)
(580 1.61433e-13 0)
(580 2.84439e-15 0)
(580 2.95659e-13 0)
(580 4.59542e-13 0)
(580 6.07458e-13 0)
(580 6.13519e-13 0)
(580 4.4532e-13 0)
(580 -3.22415e-13 0)
(580 -7.50489e-13 0)
(580 -7.20001e-13 0)
(580 -8.5618e-13 0)
(580 -7.94398e-13 0)
(580 -6.86485e-13 0)
(580 -5.61025e-13 0)
(580 1.66288e-13 0)
(580 4.53174e-13 0)
(580 2.69316e-13 0)
(580 3.32084e-14 0)
(580 -2.17081e-13 0)
(580 -2.30745e-13 0)
(580 -4.05992e-13 0)
(580 -3.28155e-13 0)
(580 -2.03345e-13 0)
(580 -1.20381e-13 0)
(580 -2.25369e-13 0)
(580 -8.94204e-14 0)
(580 6.73521e-14 0)
(580 -1.12594e-13 0)
(580 -1.20236e-13 0)
(580 -1.87767e-13 0)
(580 -2.6593e-13 0)
(580 -1.64619e-13 0)
(580 -2.47469e-15 0)
(580 5.08456e-13 0)
(580 4.31177e-13 0)
(580 5.86763e-13 0)
(580 8.90631e-13 0)
(580 8.53726e-13 0)
(580 5.20863e-13 0)
(580 3.59696e-13 0)
(580 -3.38696e-14 0)
(580 -5.81071e-13 0)
(580 -6.12311e-13 0)
(580 -6.53832e-13 0)
(580 -3.05676e-13 0)
(580 -4.42448e-13 0)
(580 -6.76162e-13 0)
(580 -9.38897e-13 0)
(580 -4.94335e-13 0)
(580 -1.86926e-13 0)
(580 1.0055e-13 0)
(580 -1.94838e-13 0)
(580 -4.65361e-13 0)
(580 -4.00627e-13 0)
(580 -4.78392e-13 0)
(580 -6.87913e-13 0)
(580 -4.13348e-13 0)
(580 -2.26457e-13 0)
(580 -1.98484e-13 0)
(580 -3.28686e-13 0)
(580 -2.18312e-13 0)
(580 4.72852e-13 0)
(580 5.63584e-13 0)
(580 7.9315e-15 0)
(580 2.11118e-13 0)
(580 1.93154e-13 0)
(580 3.09752e-13 0)
(580 3.92358e-13 0)
(580 1.84554e-13 0)
(580 -1.16568e-14 0)
(580 -5.10409e-13 0)
(580 -3.4524e-13 0)
(580 -2.4572e-13 0)
(580 2.07766e-14 0)
(580 6.14773e-13 0)
(580 1.12578e-12 0)
(580 1.23954e-12 0)
(580 9.57369e-13 0)
(580 6.46621e-13 0)
(580 4.67407e-13 0)
(580 4.6824e-13 0)
(580 4.93833e-13 0)
(580 5.36906e-13 0)
(580 5.50973e-13 0)
(580 2.50471e-13 0)
(580 1.57892e-13 0)
(580 2.55707e-13 0)
(580 6.34962e-14 0)
(580 -1.11149e-13 0)
(580 -4.25434e-13 0)
(580 -6.24615e-13 0)
(580 -6.23658e-13 0)
(580 -3.57004e-13 0)
(580 -7.82615e-14 0)
(580 -1.44267e-13 0)
(580 9.91361e-15 0)
(580 9.29919e-14 0)
(580 1.73218e-13 0)
(580 -2.15839e-13 0)
(580 -1.11218e-13 0)
(580 -6.97615e-14 0)
(580 5.73502e-14 0)
(580 1.36718e-13 0)
(580 9.05412e-14 0)
(580 8.55842e-14 0)
(580 -4.5087e-13 0)
(580 -3.30813e-13 0)
(580 -5.99851e-13 0)
(580 -8.96838e-13 0)
(580 -8.43705e-13 0)
(580 -7.16645e-13 0)
(580 -2.8282e-13 0)
(580 -1.20375e-13 0)
(580 8.48408e-15 0)
(580 1.11909e-13 0)
(580 4.50281e-13 0)
(580 4.13721e-13 0)
(580 1.94786e-13 0)
(580 9.60599e-14 0)
(580 1.29084e-13 0)
(580 -1.72075e-13 0)
(580 -2.39896e-13 0)
(580 -6.20052e-13 0)
(580 -5.42608e-13 0)
(580 -5.53912e-13 0)
(580 -6.64364e-13 0)
(580 -4.32563e-13 0)
(580 -3.80799e-13 0)
(580 -2.264e-13 0)
(580 -5.72249e-13 0)
(580 -6.19909e-13 0)
(580 -4.83099e-13 0)
(580 -6.29226e-13 0)
(580 -7.2461e-13 0)
(580 -8.37661e-13 0)
(580 -8.29878e-13 0)
(580 -6.8696e-13 0)
(580 -5.68617e-13 0)
(580 -1.62271e-13 0)
(580 -2.6584e-14 0)
(580 2.76278e-13 0)
(580 6.60545e-13 0)
(580 6.15284e-13 0)
(580 1.4686e-13 0)
(580 1.50276e-13 0)
(580 -2.04377e-14 0)
(580 1.66915e-13 0)
(580 4.00858e-13 0)
(580 5.4903e-13 0)
(580 3.37953e-13 0)
(580 2.94897e-13 0)
(580 6.00235e-13 0)
(580 5.3639e-13 0)
(580 6.94642e-13 0)
(580 8.38506e-13 0)
(580 8.57064e-13 0)
(580 1.26657e-12 0)
(580 1.31384e-12 0)
(580 1.19764e-12 0)
(580 1.00708e-12 0)
(580 5.03581e-13 0)
(580 5.44011e-13 0)
(580 5.14311e-13 0)
(580 6.69665e-13 0)
(580 7.74395e-13 0)
(580 7.75328e-13 0)
(580 4.86595e-13 0)
(580 4.86694e-13 0)
(580 3.13046e-13 0)
(580 -4.869e-13 0)
(580 -7.86588e-13 0)
(580 -4.63849e-13 0)
(580 1.56278e-13 0)
(580 1.04861e-13 0)
(580 6.40282e-14 0)
(580 -1.03234e-13 0)
(580 3.70787e-14 0)
(580 5.72422e-13 0)
(580 1.0409e-13 0)
(580 1.10121e-13 0)
(580 6.17058e-14 0)
(580 -1.82763e-13 0)
(580 -2.29149e-13 0)
(580 -1.89277e-13 0)
(580 4.72731e-14 0)
(580 -1.1502e-13 0)
(580 -1.60674e-13 0)
(580 -1.86883e-13 0)
(580 -1.99048e-13 0)
(580 -1.40874e-13 0)
(580 -3.03022e-14 0)
(580 3.80231e-15 0)
(580 -2.19187e-13 0)
(580 -5.2176e-13 0)
(580 -4.87542e-13 0)
(580 -1.74347e-13 0)
(580 -1.48942e-13 0)
(580 -1.89736e-13 0)
(580 -1.26177e-13 0)
(580 -1.84163e-13 0)
(580 -3.44125e-13 0)
(580 -1.21567e-13 0)
(580 -1.72085e-13 0)
(580 -2.05488e-13 0)
(580 -4.99211e-13 0)
(580 -5.17877e-13 0)
(580 -3.02185e-13 0)
(580 -2.7938e-13 0)
(580 -4.58011e-13 0)
(580 -9.78597e-13 0)
(580 -1.12152e-12 0)
(580 -8.62258e-13 0)
(580 -7.11491e-13 0)
(580 -7.30795e-13 0)
(580 -5.35253e-13 0)
(580 -2.95274e-13 0)
(580 -1.74201e-13 0)
(580 -1.04766e-14 0)
(580 3.34152e-13 0)
(580 7.10679e-13 0)
(580 1.0737e-12 0)
(580 8.96552e-13 0)
(580 1.99958e-13 0)
(580 1.29674e-13 0)
(580 -3.72732e-14 0)
(580 -1.15164e-13 0)
(580 1.66176e-13 0)
(580 3.72111e-13 0)
(580 2.71511e-13 0)
(580 3.11839e-13 0)
(580 8.24287e-13 0)
(580 1.25436e-12 0)
(580 1.07782e-12 0)
(580 9.52637e-13 0)
(580 6.07921e-13 0)
(580 6.5287e-13 0)
(580 7.0391e-13 0)
(580 9.33123e-13 0)
(580 8.334e-13 0)
(580 6.22308e-13 0)
(580 7.85364e-13 0)
(580 5.59251e-13 0)
(580 6.67576e-13 0)
(580 9.57146e-13 0)
(580 1.31455e-12 0)
(580 1.13468e-12 0)
(580 9.17383e-13 0)
(580 5.58466e-13 0)
(580 -1.81372e-13 0)
(580 -6.60085e-13 0)
(580 -5.72039e-13 0)
(580 -3.90869e-13 0)
(580 -1.68974e-13 0)
(580 2.38276e-13 0)
(580 8.22888e-13 0)
(580 7.3792e-13 0)
(580 5.97003e-13 0)
(580 4.35673e-13 0)
(580 -4.11402e-13 0)
(580 5.14507e-14 0)
(580 -5.46851e-14 0)
(580 -2.70685e-13 0)
(580 -8.29758e-13 0)
(580 -8.31381e-13 0)
(580 -5.15762e-13 0)
(580 -2.08443e-14 0)
(580 -4.06422e-14 0)
(580 -2.68631e-14 0)
(580 1.67587e-13 0)
(580 4.15314e-13 0)
(580 4.04308e-13 0)
(580 2.80463e-13 0)
(580 2.03456e-13 0)
(580 4.1805e-14 0)
(580 9.17466e-14 0)
(580 1.69338e-13 0)
(580 1.23784e-13 0)
(580 1.24956e-13 0)
(580 1.32333e-13 0)
(580 3.13502e-14 0)
(580 3.04147e-14 0)
(580 6.1127e-14 0)
(580 -9.52261e-14 0)
(580 -4.9389e-13 0)
(580 -6.8894e-13 0)
(580 -7.31505e-13 0)
(580 -8.07145e-13 0)
(580 -7.88522e-13 0)
(580 -7.89319e-13 0)
(580 -7.80142e-13 0)
(580 -6.2245e-13 0)
(580 -4.45181e-13 0)
(580 -4.38263e-13 0)
(580 -4.20273e-13 0)
(580 -1.34157e-13 0)
(580 -1.84368e-13 0)
(580 -8.43727e-14 0)
(580 8.31599e-15 0)
(580 2.05877e-13 0)
(580 4.23098e-13 0)
(580 4.8247e-13 0)
(580 3.91184e-13 0)
(580 1.98587e-13 0)
(580 -1.81253e-13 0)
(580 -5.42621e-14 0)
(580 5.82557e-13 0)
(580 5.0491e-13 0)
(580 4.59931e-13 0)
(580 4.04175e-13 0)
(580 4.62497e-13 0)
(580 4.58351e-13 0)
(580 4.6946e-13 0)
(580 5.40915e-13 0)
(580 3.96874e-13 0)
(580 5.92878e-13 0)
(580 2.02325e-13 0)
(580 7.97778e-14 0)
(580 1.31273e-13 0)
(580 4.88881e-13 0)
(580 7.9966e-13 0)
(580 1.31016e-12 0)
(580 1.22183e-12 0)
(580 1.09965e-12 0)
(580 1.15036e-12 0)
(580 1.11393e-12 0)
(580 8.65889e-13 0)
(580 4.03829e-13 0)
(580 -1.40211e-13 0)
(580 -1.62263e-13 0)
(580 1.00142e-13 0)
(580 2.07822e-13 0)
(580 2.21708e-13 0)
(580 2.62957e-13 0)
(580 6.54148e-13 0)
(580 6.97789e-13 0)
(580 6.11312e-13 0)
(580 2.66908e-13 0)
(580 -3.66116e-14 0)
(580 -2.63108e-13 0)
(580 -1.21534e-13 0)
(580 -1.6899e-13 0)
(580 -2.07683e-13 0)
(580 -4.74884e-13 0)
(580 -7.10855e-13 0)
(580 -7.86711e-13 0)
(580 -6.06963e-13 0)
(580 -4.29738e-13 0)
(580 -3.13748e-13 0)
(580 -1.11138e-13 0)
(580 3.28809e-14 0)
(580 9.76291e-14 0)
(580 1.11172e-13 0)
(580 2.58297e-13 0)
(580 2.33893e-13 0)
(580 1.61892e-13 0)
(580 1.13521e-13 0)
(580 -1.42194e-13 0)
(580 -3.42097e-13 0)
(580 -5.53725e-13 0)
(580 -4.52812e-13 0)
(580 -2.08863e-13 0)
(580 -1.80307e-13 0)
(580 -4.11011e-13 0)
(580 -7.43573e-13 0)
(580 -8.64752e-13 0)
(580 -9.75059e-13 0)
(580 -9.7209e-13 0)
(580 -9.9395e-13 0)
(580 -7.02011e-13 0)
(580 -4.14564e-13 0)
(580 -2.12245e-13 0)
(580 -1.25655e-13 0)
(580 -1.53161e-13 0)
(580 -3.36196e-13 0)
(580 -2.87768e-13 0)
(580 -3.36892e-13 0)
(580 -4.54128e-13 0)
(580 -4.26441e-13 0)
(580 -1.19305e-13 0)
(580 1.08766e-13 0)
(580 1.12485e-13 0)
(580 1.28523e-13 0)
(580 5.19579e-13 0)
(580 5.22418e-13 0)
(580 7.64928e-13 0)
(580 4.87008e-13 0)
(580 3.0557e-14 0)
(580 -1.32724e-13 0)
(580 -1.11881e-13 0)
(580 -8.08222e-14 0)
(580 -1.35066e-13 0)
(580 -1.16836e-13 0)
(580 4.93452e-14 0)
(580 1.39471e-13 0)
(580 5.67692e-13 0)
(580 2.98537e-13 0)
(580 3.40544e-13 0)
(580 4.40189e-13 0)
(580 8.91162e-13 0)
(580 1.22412e-12 0)
(580 1.25649e-12 0)
(580 1.24329e-12 0)
(580 1.15521e-12 0)
(580 1.10863e-12 0)
(580 8.50693e-13 0)
(580 6.4838e-13 0)
(580 2.42575e-13 0)
(580 1.13805e-13 0)
(580 1.86493e-13 0)
(580 2.92728e-13 0)
(580 9.01063e-14 0)
(580 1.53066e-13 0)
(580 3.43395e-13 0)
(580 2.56082e-13 0)
(580 -1.19058e-13 0)
(580 -1.8432e-13 0)
(580 -2.65207e-13 0)
(580 -5.62606e-13 0)
(580 -4.82841e-13 0)
(580 7.78723e-14 0)
(580 1.20612e-13 0)
(580 8.15414e-14 0)
(580 -1.57966e-13 0)
(580 -4.62728e-13 0)
(580 -9.38498e-13 0)
(580 -8.0314e-13 0)
(580 -4.289e-13 0)
(580 -1.83386e-13 0)
(580 -2.22349e-13 0)
(580 -2.24901e-13 0)
(580 -3.04595e-13 0)
(580 -2.08012e-13 0)
(580 -6.86085e-14 0)
(580 8.86402e-14 0)
(580 5.13149e-14 0)
(580 -3.30989e-13 0)
(580 -5.96947e-13 0)
(580 -5.88518e-13 0)
(580 -4.80605e-13 0)
(580 -3.50161e-13 0)
(580 -2.57454e-13 0)
(580 -4.24573e-13 0)
(580 -5.31823e-13 0)
(580 -5.30081e-13 0)
(580 -4.87038e-13 0)
(580 -5.32444e-13 0)
(580 -4.94283e-13 0)
(580 -5.70194e-13 0)
(580 -5.32741e-13 0)
(580 -7.14796e-14 0)
(580 -5.63317e-14 0)
(580 -1.5838e-13 0)
(580 -2.76668e-13 0)
(580 -2.66092e-13 0)
(580 -1.67861e-14 0)
(580 3.99883e-15 0)
(580 -1.32358e-13 0)
(580 3.91193e-14 0)
(580 2.10265e-13 0)
(580 4.87863e-13 0)
(580 3.03595e-13 0)
(580 1.62819e-13 0)
(580 2.96485e-13 0)
(580 7.55252e-13 0)
(580 8.03893e-13 0)
(580 3.21645e-13 0)
(580 3.7755e-14 0)
(580 -1.17073e-13 0)
(580 -2.47737e-13 0)
(580 -4.63149e-13 0)
(580 -4.81697e-13 0)
(580 -2.36748e-13 0)
(580 -7.9357e-14 0)
(580 3.7754e-13 0)
(580 3.71253e-13 0)
(580 5.04395e-13 0)
(580 6.81064e-13 0)
(580 1.04859e-12 0)
(580 1.14325e-12 0)
(580 9.46487e-13 0)
(580 9.76309e-13 0)
(580 9.86307e-13 0)
(580 1.10647e-12 0)
(580 9.12131e-13 0)
(580 6.04029e-13 0)
(580 4.82269e-13 0)
(580 3.42404e-13 0)
(580 5.01693e-13 0)
(580 3.9854e-13 0)
(580 7.35533e-14 0)
(580 -1.9895e-13 0)
(580 -1.68476e-13 0)
(580 -1.62703e-13 0)
(580 -4.61507e-13 0)
(580 -5.41729e-13 0)
(580 -4.87755e-13 0)
(580 -4.94019e-13 0)
(580 -7.00953e-13 0)
(580 -6.22403e-13 0)
(580 1.1204e-13 0)
(580 2.53056e-13 0)
(580 1.99543e-13 0)
(580 -1.74217e-13 0)
(580 -5.44976e-14 0)
(580 -2.9792e-13 0)
(580 -2.64122e-13 0)
(580 -3.25994e-13 0)
(580 -2.39619e-13 0)
(580 -4.14189e-13 0)
(580 -5.17196e-13 0)
(580 -4.14724e-13 0)
(580 -2.41109e-13 0)
(580 -2.93189e-13 0)
(580 -1.21093e-13 0)
(580 -2.22574e-13 0)
(580 -4.24634e-13 0)
(580 -4.8814e-13 0)
(580 -4.27405e-13 0)
(580 -1.5218e-13 0)
(580 2.096e-14 0)
(580 -6.0189e-14 0)
(580 -4.86886e-13 0)
(580 -5.14111e-13 0)
(580 -4.87944e-13 0)
(580 -3.96084e-13 0)
(580 -2.81639e-13 0)
(580 -3.77165e-13 0)
(580 -3.38952e-13 0)
(580 -3.97537e-13 0)
(580 -8.92168e-14 0)
(580 7.1122e-14 0)
(580 2.12498e-13 0)
(580 2.49846e-13 0)
(580 4.73687e-13 0)
(580 3.03682e-13 0)
(580 2.49657e-13 0)
(580 3.59685e-13 0)
(580 5.17951e-13 0)
(580 4.37057e-13 0)
(580 6.1364e-13 0)
(580 6.66424e-13 0)
(580 5.37543e-13 0)
(580 4.45223e-13 0)
(580 2.22673e-13 0)
(580 2.75104e-13 0)
(580 1.85827e-13 0)
(580 1.78819e-13 0)
(580 9.74833e-14 0)
(580 2.05677e-14 0)
(580 -2.40264e-13 0)
(580 -4.41003e-13 0)
(580 -6.56027e-13 0)
(580 -4.68972e-13 0)
(580 -2.12006e-13 0)
(580 -7.7521e-15 0)
(580 4.1183e-13 0)
(580 6.15691e-13 0)
(580 6.61099e-13 0)
(580 6.56565e-13 0)
(580 7.47635e-13 0)
(580 8.34659e-13 0)
(580 9.16016e-13 0)
(580 9.0231e-13 0)
(580 7.99712e-13 0)
(580 1.02366e-12 0)
(580 9.52721e-13 0)
(580 7.50995e-13 0)
(580 6.76283e-13 0)
(580 7.27468e-13 0)
(580 5.26259e-13 0)
(580 3.71206e-13 0)
(580 9.61469e-14 0)
(580 -5.03407e-14 0)
(580 -4.12089e-14 0)
(580 -2.24662e-13 0)
(580 -2.63816e-13 0)
(580 -1.63946e-13 0)
(580 -3.09861e-14 0)
(580 3.42856e-14 0)
(580 1.25376e-13 0)
(580 -1.77814e-14 0)
(580 9.52898e-14 0)
(580 2.25173e-13 0)
(580 2.3557e-13 0)
(580 2.304e-13 0)
(580 2.44669e-13 0)
(580 1.87486e-14 0)
(580 -6.8638e-14 0)
(580 3.02566e-14 0)
(580 -3.01062e-14 0)
(580 2.70507e-14 0)
(580 2.94646e-14 0)
(580 1.72595e-14 0)
(580 -2.22729e-13 0)
(580 -4.21171e-13 0)
(580 -3.59501e-13 0)
(580 -5.70276e-14 0)
(580 -2.37981e-13 0)
(580 9.67048e-14 0)
(580 1.66433e-13 0)
(580 -2.34426e-14 0)
(580 -7.63803e-14 0)
(580 1.16506e-13 0)
(580 1.70003e-13 0)
(580 -4.57327e-14 0)
(580 9.14717e-14 0)
(580 4.13132e-14 0)
(580 5.42729e-14 0)
(580 2.01429e-13 0)
(580 2.11443e-13 0)
(580 2.48034e-13 0)
(580 5.06457e-13 0)
(580 7.43535e-13 0)
(580 9.45476e-13 0)
(580 4.94718e-13 0)
(580 2.33803e-13 0)
(580 4.59081e-13 0)
(580 8.36312e-13 0)
(580 8.71355e-13 0)
(580 6.55787e-13 0)
(580 5.76171e-13 0)
(580 7.717e-13 0)
(580 6.98941e-13 0)
(580 3.22749e-13 0)
(580 1.65325e-14 0)
(580 -6.41914e-14 0)
(580 -4.17347e-14 0)
(580 1.08104e-13 0)
(580 1.52739e-13 0)
(580 2.16623e-13 0)
(580 1.6027e-14 0)
(580 -3.83866e-15 0)
(580 -1.54822e-13 0)
(580 -1.20087e-13 0)
(580 -1.22768e-13 0)
(580 3.66785e-13 0)
(580 5.99879e-13 0)
(580 5.40609e-13 0)
(580 5.54626e-13 0)
(580 7.28046e-13 0)
(580 8.30576e-13 0)
(580 1.0179e-12 0)
(580 1.24611e-12 0)
(580 1.11434e-12 0)
(580 7.82268e-13 0)
(580 6.32843e-13 0)
(580 7.49834e-13 0)
(580 7.11047e-13 0)
(580 8.41304e-13 0)
(580 1.33091e-12 0)
(580 1.3881e-12 0)
(580 9.61127e-13 0)
(580 4.01564e-13 0)
(580 3.88863e-13 0)
(580 2.6986e-13 0)
(580 -1.43143e-15 0)
(580 3.93039e-14 0)
(580 3.54793e-13 0)
(580 3.06893e-13 0)
(580 3.63848e-15 0)
(580 3.29438e-14 0)
(580 2.74487e-13 0)
(580 7.02308e-13 0)
(580 5.14218e-13 0)
(580 5.8653e-13 0)
(580 5.03007e-13 0)
(580 5.05971e-13 0)
(580 5.50404e-13 0)
(580 7.30806e-13 0)
(580 7.09049e-13 0)
(580 5.65773e-13 0)
(580 4.41026e-13 0)
(580 4.74271e-13 0)
(580 3.56491e-13 0)
(580 3.01456e-13 0)
(580 3.27998e-13 0)
(580 4.04683e-13 0)
(580 2.61955e-13 0)
(580 2.30899e-13 0)
(580 6.19975e-14 0)
(580 7.39386e-14 0)
(580 2.01603e-13 0)
(580 3.19706e-13 0)
(580 4.53085e-13 0)
(580 3.92862e-13 0)
(580 2.94509e-13 0)
(580 3.99268e-13 0)
(580 5.70178e-13 0)
(580 9.41056e-13 0)
(580 9.90746e-13 0)
(580 8.03461e-13 0)
(580 7.61946e-13 0)
(580 7.78687e-13 0)
(580 7.25649e-13 0)
(580 7.57173e-13 0)
(580 5.00787e-13 0)
(580 4.24704e-13 0)
(580 8.63242e-13 0)
(580 8.45363e-13 0)
(580 6.59579e-13 0)
(580 3.66336e-13 0)
(580 3.42849e-13 0)
(580 4.87788e-13 0)
(580 6.51913e-13 0)
(580 5.8388e-13 0)
(580 6.42517e-13 0)
(580 5.52016e-13 0)
(580 5.96167e-13 0)
(580 6.41432e-13 0)
(580 7.11027e-13 0)
(580 6.41699e-13 0)
(580 9.24622e-13 0)
(580 9.88003e-13 0)
(580 8.95002e-13 0)
(580 6.36784e-13 0)
(580 6.68097e-13 0)
(580 8.23997e-13 0)
(580 8.44289e-13 0)
(580 7.42579e-13 0)
(580 7.6593e-13 0)
(580 8.25268e-13 0)
(580 1.02814e-12 0)
(580 1.05588e-12 0)
(580 1.17619e-12 0)
(580 9.86816e-13 0)
(580 9.13001e-13 0)
(580 9.39011e-13 0)
(580 1.13375e-12 0)
(580 1.0958e-12 0)
(580 1.25469e-12 0)
(580 1.30419e-12 0)
(580 1.05571e-12 0)
(580 9.67239e-13 0)
(580 7.18338e-13 0)
(580 6.54506e-13 0)
(580 4.67239e-13 0)
(580 4.46108e-13 0)
(580 2.96252e-13 0)
(580 1.06798e-13 0)
(580 -1.17871e-13 0)
(580 2.00729e-14 0)
(580 2.23601e-13 0)
(580 4.14116e-13 0)
(580 4.00166e-13 0)
(580 5.77447e-13 0)
(580 6.50571e-13 0)
(580 6.31407e-13 0)
(580 7.33252e-13 0)
(580 6.63037e-13 0)
(580 7.43999e-13 0)
(580 5.47654e-13 0)
(580 3.97793e-13 0)
(580 3.8481e-13 0)
(580 5.95407e-13 0)
(580 6.04536e-13 0)
(580 4.99482e-13 0)
(580 1.72519e-13 0)
(580 3.59711e-14 0)
(580 -2.8423e-13 0)
(580 -3.39651e-13 0)
(580 -2.64551e-13 0)
(580 -8.98019e-14 0)
(580 3.44391e-13 0)
(580 3.88969e-13 0)
(580 4.37699e-13 0)
(580 4.53273e-13 0)
(580 6.57062e-13 0)
(580 7.62961e-13 0)
(580 7.59485e-13 0)
(580 8.04867e-13 0)
(580 9.31285e-13 0)
(580 9.31117e-13 0)
(580 7.20519e-13 0)
(580 4.2125e-13 0)
(580 2.66172e-13 0)
(580 3.62671e-13 0)
(580 4.95874e-13 0)
(580 2.22645e-13 0)
(580 4.43051e-14 0)
(580 -2.00916e-13 0)
(580 -1.10355e-13 0)
(580 1.12612e-13 0)
(580 2.91089e-13 0)
(580 7.24832e-13 0)
(580 1.13014e-12 0)
(580 1.45474e-12 0)
(580 1.47025e-12 0)
(580 1.30246e-12 0)
(580 1.27567e-12 0)
(580 1.22391e-12 0)
(580 1.37079e-12 0)
(580 1.31665e-12 0)
(580 1.26092e-12 0)
(580 1.18073e-12 0)
(580 1.10973e-12 0)
(580 8.41418e-13 0)
(580 6.4374e-13 0)
(580 6.97414e-13 0)
(580 1.05879e-12 0)
(580 1.10547e-12 0)
(580 1.0707e-12 0)
(580 1.08699e-12 0)
(580 7.04825e-13 0)
(580 7.64006e-13 0)
(580 7.9356e-13 0)
(580 9.2719e-13 0)
(580 9.36145e-13 0)
(580 7.60617e-13 0)
(580 5.49906e-13 0)
(580 3.87586e-13 0)
(580 5.12942e-13 0)
(580 6.25843e-13 0)
(580 7.73895e-13 0)
(580 8.07209e-13 0)
(580 8.36084e-13 0)
(580 7.73781e-13 0)
(580 5.70645e-13 0)
(580 9.25592e-14 0)
(580 -9.29272e-14 0)
(580 -1.30637e-13 0)
(580 -5.52935e-14 0)
(580 2.25526e-13 0)
(580 2.29855e-13 0)
(580 7.39082e-13 0)
(580 7.26357e-13 0)
(580 6.93314e-13 0)
(580 6.85473e-13 0)
(580 4.56602e-13 0)
(580 7.08045e-14 0)
(580 3.10727e-14 0)
(580 -2.41206e-13 0)
(580 -2.98032e-13 0)
(580 -1.29023e-13 0)
(580 2.14883e-13 0)
(580 2.30412e-13 0)
(580 3.14169e-13 0)
(580 1.08718e-13 0)
(580 -2.54131e-13 0)
(580 -3.11548e-13 0)
(580 -7.66155e-14 0)
(580 -1.31132e-15 0)
(580 9.92956e-14 0)
(580 3.03928e-13 0)
(580 4.17434e-13 0)
(580 6.54021e-13 0)
(580 5.68089e-13 0)
(580 7.06689e-13 0)
(580 6.24644e-13 0)
(580 3.89135e-13 0)
(580 5.36666e-13 0)
(580 5.85317e-13 0)
(580 5.16311e-13 0)
(580 3.8852e-13 0)
(580 3.85887e-13 0)
(580 2.94967e-13 0)
(580 7.38304e-13 0)
(580 8.90874e-13 0)
(580 7.80235e-13 0)
(580 1.98978e-13 0)
(580 1.15308e-14 0)
(580 1.17205e-13 0)
(580 4.75349e-13 0)
(580 5.40748e-13 0)
(580 8.07097e-13 0)
(580 1.01404e-12 0)
(580 1.23986e-12 0)
(580 1.28846e-12 0)
(580 1.17272e-12 0)
(580 1.30267e-12 0)
(580 1.48386e-12 0)
(580 1.84253e-12 0)
(580 1.60027e-12 0)
(580 1.27655e-12 0)
(580 1.18223e-12 0)
(580 1.17224e-12 0)
(580 9.96135e-13 0)
(580 9.51068e-13 0)
(580 9.32646e-13 0)
(580 1.18087e-12 0)
(580 1.27854e-12 0)
(580 9.09196e-13 0)
(580 6.07715e-13 0)
(580 6.90886e-13 0)
(580 7.85402e-13 0)
(580 8.84108e-13 0)
(580 8.24716e-13 0)
(580 8.77389e-13 0)
(580 6.15447e-13 0)
(580 4.58113e-13 0)
(580 4.74653e-13 0)
(580 3.99605e-13 0)
(580 5.11351e-13 0)
(580 5.98036e-13 0)
(580 5.13094e-13 0)
(580 5.06828e-13 0)
(580 5.2624e-13 0)
(580 3.63056e-13 0)
(580 4.63571e-13 0)
(580 3.26214e-13 0)
(580 5.78905e-15 0)
(580 3.94345e-14 0)
(580 2.09374e-13 0)
(580 1.6465e-13 0)
(580 5.86032e-13 0)
(580 4.88624e-13 0)
(580 4.23791e-13 0)
(580 3.71451e-13 0)
(580 2.44525e-13 0)
(580 -1.01602e-13 0)
(580 -3.90379e-13 0)
(580 -3.27922e-13 0)
(580 -3.30694e-13 0)
(580 -3.83787e-13 0)
(580 -3.70091e-13 0)
(580 -2.02525e-14 0)
(580 1.00457e-13 0)
(580 3.08317e-13 0)
(580 3.10633e-13 0)
(580 3.16287e-13 0)
(580 2.85122e-13 0)
(580 3.33861e-13 0)
(580 1.86065e-13 0)
(580 8.76305e-14 0)
(580 2.51791e-13 0)
(580 4.41443e-13 0)
(580 1.92502e-13 0)
(580 8.36895e-14 0)
(580 1.73964e-13 0)
(580 4.78671e-14 0)
(580 1.37175e-13 0)
(580 -2.14096e-14 0)
(580 -2.68515e-14 0)
(580 1.09027e-13 0)
(580 1.02752e-13 0)
(580 4.89045e-13 0)
(580 7.11325e-13 0)
(580 6.75958e-13 0)
(580 6.32634e-13 0)
(580 6.46822e-13 0)
(580 6.40836e-13 0)
(580 8.50569e-13 0)
(580 8.90741e-13 0)
(580 8.23905e-13 0)
(580 9.05972e-13 0)
(580 1.11272e-12 0)
(580 1.07926e-12 0)
(580 1.34933e-12 0)
(580 1.51636e-12 0)
(580 1.82494e-12 0)
(580 1.91666e-12 0)
(580 1.6128e-12 0)
(580 1.62961e-12 0)
(580 1.94929e-12 0)
(580 2.03548e-12 0)
(580 2.01895e-12 0)
(580 1.94707e-12 0)
(580 1.86947e-12 0)
(580 1.63793e-12 0)
(580 1.22269e-12 0)
(580 1.221e-12 0)
(580 1.16205e-12 0)
(580 1.05869e-12 0)
(580 1.13596e-12 0)
(580 1.27452e-12 0)
(580 1.29018e-12 0)
(580 1.0476e-12 0)
(580 9.6544e-13 0)
(580 9.60218e-13 0)
(580 9.38059e-13 0)
(580 9.02617e-13 0)
(580 7.65351e-13 0)
(580 7.0276e-13 0)
(580 4.18872e-13 0)
(580 1.39289e-13 0)
(580 1.29794e-13 0)
(580 -5.33646e-14 0)
(580 -1.55427e-14 0)
(580 -1.72606e-14 0)
(580 1.10486e-13 0)
(580 2.96401e-13 0)
(580 2.04304e-13 0)
(580 -1.24634e-13 0)
(580 -1.09272e-13 0)
(580 -1.60506e-13 0)
(580 9.90132e-14 0)
(580 2.2532e-13 0)
(580 2.73747e-13 0)
(580 3.40185e-13 0)
(580 2.85544e-13 0)
(580 1.59389e-13 0)
(580 1.40724e-13 0)
(580 1.27955e-13 0)
(580 -1.32716e-13 0)
(580 -3.59951e-13 0)
(580 -8.41602e-14 0)
(580 -2.85987e-13 0)
(580 -1.32551e-13 0)
(580 2.19295e-13 0)
(580 3.94075e-13 0)
(580 6.28912e-14 0)
(580 -8.07312e-14 0)
(580 3.18697e-14 0)
(580 6.65345e-14 0)
(580 2.57504e-13 0)
(580 3.05462e-13 0)
(580 4.61308e-13 0)
(580 2.68753e-13 0)
(580 2.26583e-13 0)
(580 1.21528e-14 0)
(580 -2.07537e-13 0)
(580 -1.42103e-13 0)
(580 -1.17712e-13 0)
(580 1.70574e-13 0)
(580 1.768e-13 0)
(580 3.59748e-13 0)
(580 3.37212e-13 0)
(580 4.21467e-13 0)
(580 2.2409e-13 0)
(580 5.43915e-13 0)
(580 7.03159e-13 0)
(580 1.02248e-12 0)
(580 1.10047e-12 0)
(580 1.07068e-12 0)
(580 1.14193e-12 0)
(580 1.35518e-12 0)
(580 1.44332e-12 0)
(580 1.60813e-12 0)
(580 1.63257e-12 0)
(580 1.51082e-12 0)
(580 1.41668e-12 0)
(580 1.23474e-12 0)
(580 1.29724e-12 0)
(580 1.34002e-12 0)
(580 1.28222e-12 0)
(580 1.15175e-12 0)
(580 1.2827e-12 0)
(580 1.16614e-12 0)
(580 1.19299e-12 0)
(580 1.0208e-12 0)
(580 9.14875e-13 0)
(580 1.06586e-12 0)
(580 1.16413e-12 0)
(580 1.13991e-12 0)
(580 1.02776e-12 0)
(580 7.88906e-13 0)
(580 7.56227e-13 0)
(580 5.52544e-13 0)
(580 5.54292e-13 0)
(580 4.90682e-13 0)
(580 5.81617e-13 0)
(580 5.65842e-13 0)
(580 7.07991e-13 0)
(580 6.09673e-13 0)
(580 2.47233e-13 0)
(580 1.02466e-13 0)
(580 -1.94513e-13 0)
(580 -4.26828e-13 0)
(580 -4.93415e-13 0)
(580 -4.2641e-13 0)
(580 -3.2965e-14 0)
(580 2.71247e-14 0)
(580 1.05784e-13 0)
(580 1.74882e-13 0)
(580 1.47953e-13 0)
(580 3.45775e-13 0)
(580 3.93e-13 0)
(580 3.69184e-13 0)
(580 5.77071e-13 0)
(580 7.445e-13 0)
(580 5.43972e-13 0)
(580 4.33423e-13 0)
(580 4.88497e-13 0)
(580 3.93463e-13 0)
(580 1.10559e-13 0)
(580 4.10187e-14 0)
(580 -2.12815e-13 0)
(580 -1.47394e-13 0)
(580 -3.22179e-14 0)
(580 4.55088e-14 0)
(580 -7.46711e-14 0)
(580 -2.9936e-13 0)
(580 -9.09049e-14 0)
(580 1.96042e-13 0)
(580 2.24e-13 0)
(580 8.01462e-14 0)
(580 2.83868e-13 0)
(580 3.65599e-13 0)
(580 2.24737e-13 0)
(580 3.28329e-13 0)
(580 2.91316e-13 0)
(580 3.7432e-13 0)
(580 4.12409e-13 0)
(580 2.52214e-13 0)
(580 2.09133e-13 0)
(580 1.68407e-13 0)
(580 2.47016e-13 0)
(580 6.86899e-14 0)
(580 3.49143e-14 0)
(580 2.26378e-13 0)
(580 3.07229e-13 0)
(580 5.39705e-13 0)
(580 7.6071e-13 0)
(580 9.58194e-13 0)
(580 1.15628e-12 0)
(580 1.27044e-12 0)
(580 1.42789e-12 0)
(580 1.14674e-12 0)
(580 1.2027e-12 0)
(580 1.36823e-12 0)
(580 1.35908e-12 0)
(580 1.43396e-12 0)
(580 1.52557e-12 0)
(580 1.32449e-12 0)
(580 1.02303e-12 0)
(580 8.70607e-13 0)
(580 8.02752e-13 0)
(580 7.15333e-13 0)
(580 6.03749e-13 0)
(580 4.53853e-13 0)
(580 3.04164e-13 0)
(580 1.59693e-13 0)
(580 6.38945e-14 0)
(580 -9.81915e-14 0)
(580 -3.51515e-13 0)
(580 -2.12548e-13 0)
(580 -3.13499e-14 0)
(580 2.07963e-13 0)
(580 3.78929e-13 0)
(580 1.77782e-13 0)
(580 8.04221e-15 0)
(580 3.61849e-14 0)
(580 1.16017e-13 0)
(580 4.15484e-13 0)
(580 3.57208e-13 0)
(580 1.7163e-13 0)
(580 -1.66995e-13 0)
(580 -5.02923e-13 0)
(580 -6.23489e-13 0)
(580 -5.09477e-13 0)
(580 -1.041e-13 0)
(580 1.63104e-13 0)
(580 3.24305e-13 0)
(580 2.034e-13 0)
(580 3.06067e-13 0)
(580 3.51139e-13 0)
(580 3.52795e-13 0)
(580 3.09213e-13 0)
(580 3.148e-13 0)
(580 2.86274e-13 0)
(580 2.63631e-13 0)
(580 2.8969e-13 0)
(580 2.88398e-13 0)
(580 3.19566e-13 0)
(580 2.94073e-13 0)
(580 2.98599e-14 0)
(580 -1.57793e-13 0)
(580 -1.00167e-13 0)
(580 -7.28474e-14 0)
(580 -2.02733e-13 0)
(580 -3.18409e-13 0)
(580 -4.7462e-13 0)
(580 -1.8267e-13 0)
(580 2.22432e-14 0)
(580 1.07567e-14 0)
(580 8.96929e-15 0)
(580 1.81338e-13 0)
(580 3.73814e-13 0)
(580 4.77158e-13 0)
(580 7.94773e-13 0)
(580 8.34919e-13 0)
(580 6.90652e-13 0)
(580 6.06482e-13 0)
(580 4.17258e-13 0)
(580 5.62502e-13 0)
(580 4.08265e-13 0)
(580 3.14121e-13 0)
(580 5.6003e-14 0)
(580 1.76407e-13 0)
(580 2.70803e-13 0)
(580 5.9967e-13 0)
(580 6.3287e-13 0)
(580 7.26966e-13 0)
(580 1.0598e-12 0)
(580 1.56225e-12 0)
(580 1.48224e-12 0)
(580 1.31414e-12 0)
(580 1.22274e-12 0)
(580 1.39054e-12 0)
(580 1.63765e-12 0)
(580 1.80364e-12 0)
(580 1.87933e-12 0)
(580 1.87403e-12 0)
(580 1.68198e-12 0)
(580 1.30062e-12 0)
(580 1.09645e-12 0)
(580 8.52093e-13 0)
(580 8.00282e-13 0)
(580 6.69693e-13 0)
(580 4.21881e-13 0)
(580 1.93603e-13 0)
(580 -3.40977e-15 0)
(580 -1.12993e-13 0)
(580 -3.96161e-13 0)
(580 -5.81609e-13 0)
(580 -4.87109e-13 0)
(580 -2.82149e-13 0)
(580 -5.44832e-14 0)
(580 1.54025e-14 0)
(580 -6.3014e-14 0)
(580 -3.07587e-13 0)
(580 -4.33979e-13 0)
(580 -9.49726e-13 0)
(580 -6.97852e-13 0)
(580 -4.62328e-13 0)
(580 -4.451e-13 0)
(580 -5.82273e-13 0)
(580 -6.07773e-13 0)
(580 -4.41292e-13 0)
(580 -4.97894e-13 0)
(580 7.28703e-14 0)
(580 -2.04166e-14 0)
(580 -9.91156e-15 0)
(580 -4.28165e-13 0)
(580 -3.83238e-13 0)
(580 -4.47312e-13 0)
(580 -3.90609e-13 0)
(580 -5.75562e-13 0)
(580 -3.98583e-13 0)
(580 -4.09617e-13 0)
(580 -2.19643e-13 0)
(580 -7.76331e-14 0)
(580 4.491e-14 0)
(580 5.09535e-13 0)
(580 6.0422e-13 0)
(580 5.05945e-13 0)
(580 5.30022e-13 0)
(580 3.7662e-13 0)
(580 8.31585e-14 0)
(580 -6.18206e-14 0)
(580 -1.02101e-13 0)
(580 -1.10633e-13 0)
(580 -1.09123e-14 0)
(580 -5.76559e-14 0)
(580 2.25164e-13 0)
(580 4.19107e-13 0)
(580 6.26187e-13 0)
(580 3.62559e-13 0)
(580 4.14311e-13 0)
(580 3.84767e-13 0)
(580 2.48708e-13 0)
(580 2.8422e-13 0)
(580 2.89745e-13 0)
(580 3.34282e-13 0)
(580 3.7624e-13 0)
(580 2.1324e-13 0)
(580 1.56595e-13 0)
(580 -6.2297e-15 0)
(580 9.45539e-14 0)
(580 1.95499e-13 0)
(580 3.12597e-13 0)
(580 3.35902e-13 0)
(580 4.75185e-13 0)
(580 9.3845e-13 0)
(580 1.44167e-12 0)
(580 1.6704e-12 0)
(580 1.57217e-12 0)
(580 1.54806e-12 0)
(580 1.38955e-12 0)
(580 1.15573e-12 0)
(580 1.38828e-12 0)
(580 1.77456e-12 0)
(580 1.19834e-12 0)
(580 9.842e-13 0)
(580 9.42629e-13 0)
(580 7.39517e-13 0)
(580 4.50424e-13 0)
(580 4.21239e-13 0)
(580 4.21983e-13 0)
(580 1.65975e-13 0)
(580 5.78059e-14 0)
(580 6.8411e-14 0)
(580 2.37858e-13 0)
(580 2.63604e-13 0)
(580 1.0979e-13 0)
(580 5.55701e-14 0)
(580 -1.53755e-13 0)
(580 -4.97861e-13 0)
(580 -5.90084e-13 0)
(580 -6.34573e-13 0)
(580 -4.42667e-13 0)
(580 -6.59116e-13 0)
(580 -8.68092e-13 0)
(580 -1.20004e-12 0)
(580 -1.1212e-12 0)
(580 -9.19449e-13 0)
(580 -7.36963e-13 0)
(580 -5.56761e-13 0)
(580 -3.92749e-13 0)